/*--------------------------------*- C++ -*----------------------------------*\
| =========                 |                                                 |
| \\      /  F ield         | OpenFOAM: The Open Source CFD Toolbox           |
|  \\    /   O peration     | Version:  2406                                  |
|   \\  /    A nd           | Website:  www.openfoam.com                      |
|    \\/     M anipulation  |                                                 |
\*---------------------------------------------------------------------------*/
FoamFile
{
    version     2.0;
    format      ascii;
    arch        "LSB;label=32;scalar=64";
    class       volScalarField;
    location    "4e-05";
    object      voltExtAmp;
}
// * * * * * * * * * * * * * * * * * * * * * * * * * * * * * * * * * * * * * //

dimensions      [1 2 -3 0 0 -1 0];

internalField   nonuniform List<scalar> 
61540
(
-404.2718252
-660.9254368
-1184.790005
-1976.014256
-2916.391317
-3864.025518
-4737.30862
-5501.398908
-6143.84713
-6663.96197
-7105.893193
-7577.341781
-8178.393609
-9051.292592
-410.6138945
-670.3772912
-1198.835278
-1993.84883
-2936.391095
-3886.240494
-4763.39565
-5533.747694
-6185.062645
-6716.574687
-7173.05025
-7667.505906
-8312.37257
-9247.935255
-416.9360145
-679.7631541
-1212.682683
-2011.237544
-2955.546652
-3906.900759
-4786.618984
-5560.948913
-6217.438657
-6754.840098
-7217.710985
-7720.067534
-8373.676864
-9302.43696
-423.2379508
-689.0825738
-1226.331934
-2028.180921
-2973.856975
-3925.996569
-4806.945264
-5582.914582
-6240.771146
-6778.363492
-7239.316883
-7734.815829
-8366.193668
-9240.347747
-8560.164528
-7156.652237
-6142.757635
-5306.214403
-4576.140979
-3921.336288
-3328.130796
-2793.132711
-2319.393149
-8892.344721
-7416.369076
-6343.114061
-5480.287713
-4742.51808
-4090.46277
-3506.0308
-2982.468119
-2519.340755
-8990.594644
-7548.662649
-6476.889352
-5614.792487
-4881.774675
-4238.192069
-3664.671714
-3152.682113
-2699.562828
-8906.316543
-7563.835879
-6544.321423
-5708.455738
-4992.733949
-4363.753397
-3803.843547
-3304.268952
-2861.268846
-1907.688035
-1563.695428
-1287.368708
-1068.965932
-897.3490255
-762.2980742
-655.3768903
-569.9853108
-501.0944609
-444.9161182
-398.6046243
-360.0179402
-327.5357697
-299.9247052
-276.2393662
-255.7494015
-237.8854933
-222.2003107
-208.3401618
-196.0231882
-185.0224723
-175.1540943
-166.2688623
-158.2454085
-150.9841643
-144.4033378
-138.4368028
-133.0323795
-128.1498945
-123.760013
-119.84464
-116.3982479
-113.429271
-110.9620792
-109.0408179
-107.7356188
-107.1508532
-107.4353592
-108.7948912
-111.5054694
-115.9213013
-122.4612554
-131.543717
-143.4342747
-2113.999227
-1769.657576
-1486.758052
-1257.61189
-1073.17251
-924.747787
-804.8275597
-707.2908142
-627.3070942
-561.1273005
-505.8607926
-459.2809557
-419.6696954
-385.6963395
-356.3241948
-330.7396793
-308.2998761
-288.4939384
-270.9134183
-255.2287184
-241.171547
-228.5229077
-217.1040276
-206.767968
-197.3927158
-188.8773239
-181.1398835
-174.1150053
-167.7509558
-162.00839
-156.8611655
-152.2976082
-148.3211305
-144.9514392
-142.2280935
-140.2162872
-139.0135032
-138.7565662
-139.6293509
-141.8694507
-145.7672085
-151.6438983
-159.7902004
-170.3513392
-2300.479783
-1957.034295
-1669.887261
-1432.733235
-1238.101417
-1078.575613
-947.5073308
-839.2859058
-749.3438964
-674.0377198
-610.4894526
-556.4355703
-510.0978541
-470.0764039
-435.2636394
-404.7784945
-377.9170836
-354.1144294
-332.9136308
-313.9420004
-296.8941186
-281.519502
-267.6119792
-255.0002046
-243.5409464
-233.1155923
-223.6274616
-214.9981164
-207.1641383
-200.0763654
-193.7008787
-188.0195458
-183.0297506
-178.7452857
-175.1998475
-172.4520598
-170.5901813
-169.7362557
-170.0501859
-171.7317658
-175.0143383
-180.1400664
-187.3063661
-196.5815518
-2468.773845
-2127.380786
-1837.893187
-1594.991446
-1392.411241
-1223.795295
-1083.275412
-965.7511518
-866.9538682
-783.3917745
-712.245633
-651.2555833
-598.6156578
-552.8813689
-512.8938342
-477.720588
-446.6089929
-418.9483803
-394.2397314
-372.0729284
-352.1101648
-334.0725738
-317.7284448
-302.8837439
-289.3759419
-277.0702151
-265.8556658
-255.6409623
-246.3513844
-237.9284677
-230.3306131
-223.5326955
-217.5252412
-212.3153478
-207.9299809
-204.4198699
-201.8622753
-200.3628502
-200.057139
-201.1095169
-203.7039028
-208.0192134
-214.1848115
-222.2194347
-158.0866534
-174.8980739
-192.8523862
-211.0514068
-228.8131091
-245.6946589
-261.4480087
-275.9620071
-289.2132694
-301.2306972
-312.0719835
-321.808953
-330.5188011
-338.2790061
-345.1644334
-351.2457683
-356.5888071
-361.2543044
-365.298129
-368.7715367
-371.7214604
-374.1908028
-376.2187603
-377.8411831
-379.0909349
-379.998203
-380.5907321
-380.8940015
-380.9313891
-380.7243559
-380.2926516
-379.6545157
-378.8268391
-377.8252745
-376.664308
-375.3573192
-373.9166544
-372.3537212
-370.6790919
-368.9025974
-367.0333969
-365.080022
-363.0504039
-360.9518979
-358.7913165
-356.5749725
-354.3087282
-351.9980419
-349.6480045
-347.2633646
-344.8485446
-342.4076525
-339.9444953
-337.4625968
-334.9652191
-332.455386
-329.9359057
-327.4093898
-324.8782669
-322.3447941
-319.8110639
-317.2790121
-314.7504253
-312.226949
-309.7100981
-307.2012662
-304.7017356
-302.212686
-299.7352023
-297.2702813
-294.8188377
-292.3817089
-289.9596601
-287.5533885
-285.1635274
-282.7906506
-280.4352752
-278.0978659
-275.7788377
-273.4785587
-271.1973535
-268.9355054
-266.6932594
-264.4708249
-262.2683782
-260.0860655
-257.9240047
-255.7822884
-253.6609855
-251.5601435
-249.4797898
-247.4199335
-245.3805666
-243.3616652
-241.3631903
-239.385089
-237.4272956
-235.4897317
-233.5723078
-231.6749238
-229.7974699
-227.9398271
-226.1018685
-224.2834594
-222.4844583
-220.7047178
-218.9440848
-217.2024011
-215.4795045
-213.7752283
-212.0894027
-210.4218549
-208.7724093
-207.1408881
-205.5271118
-203.9308989
-202.3520669
-200.7904321
-199.2458102
-197.7180159
-196.2068641
-194.7121691
-193.2337454
-191.7714077
-190.3249711
-188.8942509
-187.4790635
-186.0792257
-184.6945551
-183.3248705
-181.9699916
-180.6297392
-179.3039354
-177.9924035
-176.6949682
-175.4114555
-174.1416929
-172.8855093
-171.6427351
-170.4132024
-169.1967447
-167.9931973
-166.8023969
-165.624182
-164.4583928
-163.3048711
-162.1634604
-161.034006
-159.9163548
-158.8103554
-157.7158584
-156.6327159
-155.5607818
-154.4999118
-153.4499635
-152.4107958
-151.3822698
-150.3642482
-149.3565956
-148.3591784
-147.3718646
-146.3945244
-145.4270295
-144.4692539
-143.5210731
-142.5823647
-141.6530084
-140.7328854
-139.821879
-138.9198744
-138.0267584
-137.1424195
-136.2667478
-135.399635
-134.540974
-133.6906589
-132.8485851
-132.0146488
-131.1887472
-130.3707787
-129.5606422
-128.7582379
-127.9634672
-127.1762325
-126.3964376
-125.623988
-124.8587907
-124.1007543
-123.3497893
-122.6058081
-121.8687244
-121.1384538
-120.414913
-119.69802
-118.987694
-118.2838548
-117.5864234
-116.8953212
-116.2104708
-115.5317957
-114.8592203
-114.1926704
-113.5320731
-112.8773565
-112.2284506
-111.5852861
-110.947795
-110.3159101
-109.6895652
-109.0686943
-108.453232
-107.8431136
-107.2382747
-106.638652
-106.044183
-105.4548067
-104.8704634
-104.2910948
-103.7166444
-103.1470567
-102.5822775
-102.0222532
-101.4669309
-100.9162576
-100.3701809
-99.82864831
-99.29160787
-98.75900816
-98.23079861
-97.70692967
-97.187353
-96.67202132
-96.16088833
-95.65390846
-95.15103647
-94.65222725
-94.15743562
-93.66661622
-93.1797237
-92.69671298
-92.21753954
-91.74215984
-91.2705316
-90.80261388
-90.33836706
-89.87775263
-89.42073282
-88.96727019
-88.51732744
-88.07086709
-87.62785157
-87.18824349
-86.75200584
-86.3191024
-85.88949801
-85.4631586
-85.04005107
-84.62014304
-84.20340247
-83.78979741
-83.37929591
-82.97186601
-82.56747607
-82.16609498
-81.76769236
-81.37223858
-80.97970462
-80.59006183
-80.20328168
-79.81933579
-79.438196
-79.05983459
-78.68422458
-78.31133971
-77.94115429
-77.57364286
-77.20877976
-76.84653881
-76.48689323
-76.12981579
-75.77527901
-75.42325556
-75.07371852
-74.72664154
-74.38199909
-74.03976649
-73.69991993
-73.36243653
-73.02729457
-72.69447337
-72.36395331
-72.03571605
-71.70974521
-71.38602706
-71.06455153
-70.7453133
-70.42831169
-70.11354659
-69.80100759
-69.49065489
-69.18240112
-68.87611743
-68.57166479
-68.26886611
-67.96751317
-67.6677522
-67.35373674
-67.00876151
-66.63044708
-66.21637273
-65.76401369
-65.27057614
-64.73285934
-64.1472151
-63.50956651
-62.81553036
-62.0607095
-61.24074911
-60.351668
-59.38979608
-58.35185645
-57.23496604
-56.03670114
-54.75491488
-53.38828457
-51.93590944
-50.3977927
-48.77530547
-47.07040678
-45.28748746
-43.43160418
-41.5106969
-39.53387053
-37.51341848
-35.46328043
-33.40110355
-31.34686272
-29.32502765
-27.36361728
-25.49672532
-23.76427422
-22.21565098
-20.91112708
-19.92813988
-19.36758074
-183.2462638
-198.0102915
-213.85437
-230.0549082
-246.0248123
-261.3514837
-275.7790329
-289.1712671
-301.4748605
-312.6898249
-322.848373
-332.000893
-340.2070544
-347.5302337
-354.0339838
-359.779852
-364.8261922
-369.2276868
-373.0352682
-376.2961792
-379.0540475
-381.3489944
-383.2178424
-384.6944272
-385.8099378
-386.593189
-387.0707834
-387.2672049
-387.2049221
-386.9045593
-386.3851239
-385.6642336
-384.7582813
-383.6825171
-382.4510737
-381.0769895
-379.5722698
-377.9479938
-376.2144428
-374.3812114
-372.4572777
-370.4510309
-368.3702748
-366.2222354
-364.0135879
-361.7505066
-359.4387263
-357.0835996
-354.6901366
-352.2630251
-349.8066374
-347.3250322
-344.8219622
-342.3008915
-339.7650204
-337.2173152
-334.6605352
-332.0972535
-329.529871
-326.9606235
-324.3915857
-321.8246757
-319.2616606
-316.7041648
-314.1536808
-311.6115807
-309.079127
-306.5574825
-304.0477185
-301.5508211
-299.0676968
-296.5991769
-294.1460215
-291.7089238
-289.2885139
-286.8853622
-284.4999832
-282.1328389
-279.784341
-277.4548546
-275.1447004
-272.8541578
-270.5834674
-268.3328342
-266.1024299
-263.8923963
-261.7028478
-259.5338737
-257.3855402
-255.257893
-253.1509583
-251.0647444
-248.9992429
-246.9544299
-244.9302663
-242.9266992
-240.9436623
-238.9810771
-237.0388531
-235.1168895
-233.215075
-231.3332894
-229.4714042
-227.6292831
-225.8067828
-224.0037541
-222.2200422
-220.455487
-218.7099244
-216.9831862
-215.2751006
-213.5854932
-211.9141866
-210.2610015
-208.6257566
-207.0082691
-205.4083546
-203.8258282
-202.2605037
-200.7121947
-199.1807142
-197.6658753
-196.1674908
-194.685374
-193.2193385
-191.7691984
-190.3347683
-188.9158637
-187.5123007
-186.1238967
-184.7504699
-183.3918396
-182.0478266
-180.7182525
-179.4029407
-178.1017155
-176.8144031
-175.5408307
-174.2808275
-173.0342238
-171.8008517
-170.580545
-169.3731387
-168.1784699
-166.9963771
-165.8267007
-164.6692826
-163.5239663
-162.3905974
-161.2690229
-160.1590917
-159.0606544
-157.9735633
-156.8976725
-155.8328378
-154.7789167
-153.7357686
-152.7032546
-151.6812374
-150.6695818
-149.6681544
-148.6768234
-147.6954592
-146.7239338
-145.7621215
-144.8098985
-143.8671431
-142.9337354
-142.0095578
-141.0944946
-140.1884318
-139.2912576
-138.4028615
-137.523135
-136.6519707
-135.7892626
-134.9349054
-134.0887949
-133.2508277
-132.4209009
-131.5989124
-130.784761
-129.9783462
-129.1795686
-128.3883301
-127.6045344
-126.8280864
-126.0588934
-125.2968644
-124.5419105
-123.7939447
-123.052882
-122.3186384
-121.5911317
-120.8702803
-120.1560036
-119.4482216
-118.7468547
-118.0518243
-117.3630526
-116.6804626
-116.0039787
-115.333527
-114.6690347
-114.0104311
-113.3576466
-112.7106128
-112.0692624
-111.4335287
-110.8033453
-110.1786459
-109.5593645
-108.9454354
-108.3367936
-107.7333752
-107.1351176
-106.5419603
-105.9538444
-105.3707132
-104.7925116
-104.2191858
-103.6506827
-103.0869496
-102.5279334
-101.9735809
-101.4238384
-100.8786524
-100.3379695
-99.80173741
-99.26990504
-98.74242296
-98.21924338
-97.70032002
-97.18560777
-96.67506211
-96.16863863
-95.66629258
-95.16797863
-94.67365088
-94.18326318
-93.69676946
-93.21412436
-92.73528366
-92.26020465
-91.78884624
-91.32116894
-90.8571345
-90.39670559
-89.93984538
-89.48651722
-89.03668441
-88.59031028
-88.14735823
-87.70779195
-87.27157573
-86.83867446
-86.40905372
-85.98267974
-85.55951918
-85.13953905
-84.72270667
-84.30898963
-83.89835598
-83.49077441
-83.08621426
-82.6846456
-82.28603913
-81.89036596
-81.49759745
-81.10770519
-80.72066095
-80.33643687
-79.95500559
-79.57634024
-79.20041441
-78.82720185
-78.45667624
-78.0888109
-77.72357872
-77.36095228
-77.00090401
-76.64340649
-76.28843263
-75.93595586
-75.58595036
-75.2383912
-74.8932541
-74.55051552
-74.21015302
-73.8721454
-73.53647239
-73.2031148
-72.87205527
-72.54327879
-72.21677287
-71.89252805
-71.5705371
-71.25079065
-70.93326871
-70.61792794
-70.30469077
-69.99344952
-69.68408209
-69.37644837
-69.07041784
-68.76607556
-68.44743658
-68.09744135
-67.71359999
-67.29337343
-66.83411188
-66.33293335
-65.78658845
-65.19142926
-64.54339104
-63.83810215
-63.07115749
-62.23815568
-61.33502874
-60.35805287
-59.3038144
-58.1693848
-56.95227168
-55.65023972
-54.26199675
-52.78657822
-51.22399916
-49.57569844
-47.84358651
-46.03224018
-44.14665131
-42.19505341
-40.18650822
-38.13367263
-36.05057778
-33.95521853
-31.86788768
-29.81341014
-27.8203158
-25.92321156
-24.16269037
-22.58895275
-21.26324672
-20.26428176
-19.69461599
-207.8700094
-220.8019889
-234.7506216
-249.1269352
-263.4273883
-277.2749641
-290.417061
-302.7034219
-314.0594508
-324.4624209
-333.9232006
-342.4734528
-350.1570643
-357.0243802
-363.1282451
-368.5213718
-373.2548043
-377.3771992
-380.9345533
-383.9700608
-386.5239813
-388.6335787
-390.3332299
-391.6546958
-392.6274372
-393.2788383
-393.6342932
-393.7172193
-393.549114
-393.1497197
-392.5372731
-391.7287507
-390.7400256
-389.5859141
-388.280158
-386.8354171
-385.2633253
-383.5746145
-381.7792646
-379.8866269
-377.9054892
-375.8440841
-373.7100705
-371.5105265
-369.2519743
-366.9404386
-364.5815203
-362.180462
-359.7421888
-357.2713224
-354.7721779
-352.2487565
-349.7047484
-347.1435508
-344.568297
-341.9818919
-339.3870428
-336.7862824
-334.1819806
-331.5763489
-328.9714409
-326.3691531
-323.7712298
-321.179271
-318.5947442
-316.0189978
-313.4532726
-310.8987128
-308.3563746
-305.8272318
-303.3121811
-300.8120461
-298.3275803
-295.8594715
-293.408345
-290.9747671
-288.5592486
-286.1622473
-283.7841715
-281.4253818
-279.0861948
-276.766885
-274.4676877
-272.1888028
-269.9303969
-267.6926069
-265.4755427
-263.2792897
-261.1039112
-258.9494506
-256.8159322
-254.7033634
-252.611735
-250.5410225
-248.4911865
-246.4621737
-244.4539174
-242.4663382
-240.4993447
-238.5528347
-236.6266957
-234.7208059
-232.8350348
-230.9692444
-229.1232895
-227.297019
-225.4902759
-223.7028985
-221.9347204
-220.1855716
-218.4552784
-216.7436646
-215.0505509
-213.3757565
-211.7190982
-210.0803915
-208.4594505
-206.8560885
-205.2701178
-203.7013503
-202.1495977
-200.6146712
-199.0963823
-197.5945428
-196.1089646
-194.6394603
-193.1858432
-191.7479272
-190.325527
-188.9184583
-187.5265379
-186.1495836
-184.7874148
-183.4398516
-182.1067157
-180.7878302
-179.4830195
-178.1921096
-176.9149279
-175.6513033
-174.4010663
-173.1640491
-171.9400854
-170.7290105
-169.5306615
-168.3448772
-167.1714978
-166.0103655
-164.861324
-163.7242189
-162.5988975
-161.4852088
-160.3830036
-159.2921343
-158.2124551
-157.143822
-156.0860924
-155.039126
-154.0027839
-152.9769291
-151.9614265
-150.9561428
-149.9609465
-148.9757083
-148.0003008
-147.034599
-146.0784797
-145.1318222
-144.1945078
-143.2664198
-142.3474438
-141.4374673
-140.5363797
-139.6440719
-138.7604364
-137.8853668
-137.0187577
-136.1605041
-135.3105019
-134.4686472
-133.6348366
-132.8089674
-131.9909373
-131.1806451
-130.377991
-129.5828763
-128.7952045
-128.0148811
-127.2418137
-126.4759125
-125.7170897
-124.9652595
-124.2203377
-123.4822413
-122.7508886
-122.026198
-121.3080888
-120.5964805
-119.891293
-119.1924471
-118.4998646
-117.8134687
-117.1331842
-116.4589377
-115.7906576
-115.128274
-114.4717184
-113.8209231
-113.1758211
-112.5363454
-111.9024288
-111.2740041
-110.6510042
-110.0333624
-109.4210132
-108.8138929
-108.2119397
-107.6150944
-107.0233003
-106.4365024
-105.8546475
-105.2776828
-104.7055559
-104.1382133
-103.5756011
-103.0176644
-102.4643479
-101.9155967
-101.3713566
-100.8315752
-100.2962021
-99.76518899
-99.23848972
-98.71605961
-98.19785474
-97.68383122
-97.17394459
-96.66814935
-96.16639894
-95.66864609
-95.17484326
-94.68494338
-94.19890056
-93.71667055
-93.23821108
-92.76348189
-92.29244442
-91.82506143
-91.36129654
-90.90111367
-90.44447678
-89.99134961
-89.5416957
-89.09547849
-88.6526616
-88.21320892
-87.77708482
-87.34425428
-86.91468283
-86.48833658
-86.0651822
-85.64518687
-85.22831835
-84.81454507
-84.40383613
-83.99616134
-83.59149114
-83.18979641
-82.7910484
-82.39521857
-82.00227856
-81.61220026
-81.22495592
-80.84051811
-80.45885973
-80.07995386
-79.70377359
-79.33029177
-78.95948096
-78.59131348
-78.22576159
-77.86279775
-77.50239474
-77.14452567
-76.78916435
-76.43628554
-76.08586467
-75.73787758
-75.39230093
-75.04911281
-74.70829239
-74.36981959
-74.03367585
-73.69984474
-73.36831148
-73.03906283
-72.71208606
-72.38736468
-72.06487228
-71.74456471
-71.42637372
-71.11020979
-70.79597077
-70.48354581
-70.17284081
-69.86392292
-69.54060911
-69.18554527
-68.79613858
-68.36973745
-67.90357811
-67.39468915
-66.83976201
-66.23513363
-65.57674555
-64.86022932
-64.08117673
-63.23513941
-62.31796872
-61.32589124
-60.25535967
-59.1033987
-57.86745156
-56.54518847
-55.13535079
-53.63690846
-52.04988526
-50.37579214
-48.61648518
-46.77673231
-44.86145609
-42.8791869
-40.83894066
-38.75373949
-36.6377044
-34.50917893
-32.38877274
-30.30166665
-28.27690062
-26.34959538
-24.5610137
-22.96216999
-21.61528834
-20.6003504
-20.0215804
-232.0224576
-243.2920792
-255.5201938
-268.2217119
-280.9644195
-293.4076856
-305.3089105
-316.5116717
-326.9269946
-336.5147128
-345.2681781
-353.2030033
-360.3490999
-366.7449426
-372.4333676
-377.4586521
-381.8647521
-385.6944209
-388.9887775
-391.7869784
-394.1258929
-396.0398908
-397.5608641
-398.7184594
-399.5403629
-400.0524713
-400.2789051
-400.2419544
-399.9620989
-399.4581707
-398.747619
-397.8467614
-396.7709245
-395.5344545
-394.1506623
-392.6317944
-390.989091
-389.2329248
-387.3729689
-385.4183251
-383.3775788
-381.2587887
-379.0694486
-376.8164702
-374.5062092
-372.1445328
-369.7369037
-367.2884515
-364.804012
-362.2881345
-359.745068
-357.1787471
-354.5927915
-351.9905252
-349.3750104
-346.7490876
-344.1154104
-341.4764683
-338.8345977
-336.1919821
-333.5506499
-330.9124721
-328.2791667
-325.652306
-323.0333306
-320.4235628
-317.8242204
-315.2364277
-312.661224
-310.0995694
-307.5523491
-305.0203773
-302.5043995
-300.0050964
-297.5230874
-295.0589334
-292.6131401
-290.1861609
-287.7783991
-285.3902106
-283.0219069
-280.6737567
-278.3459897
-276.0387999
-273.752348
-271.4867653
-269.2421568
-267.0186036
-264.8161654
-262.6348827
-260.4747778
-258.3358564
-256.2181083
-254.1215083
-252.0460162
-249.9915779
-247.9581259
-245.9455799
-243.9538471
-241.9828241
-240.0323965
-238.1024407
-236.1928244
-234.3034074
-232.4340425
-230.5845764
-228.75485
-226.9446994
-225.1539563
-223.3824484
-221.6300001
-219.8964331
-218.1815665
-216.4852174
-214.8072009
-213.1473307
-211.5054191
-209.8812778
-208.2747174
-206.6855481
-205.11358
-203.5586227
-202.020486
-200.4989801
-198.9939155
-197.5051032
-196.032355
-194.5754831
-193.1343007
-191.7086222
-190.2982626
-188.9030384
-187.5227673
-186.157268
-184.8063607
-183.4698669
-182.1476095
-180.8394129
-179.5451031
-178.2645074
-176.9974549
-175.743776
-174.503303
-173.2758697
-172.0613115
-170.8594657
-169.6701709
-168.4932678
-167.3285985
-166.1760069
-165.0353389
-163.9064419
-162.789165
-161.6833591
-160.5888768
-159.5055723
-158.4333016
-157.3719226
-156.3212946
-155.2812792
-154.2517394
-153.2325404
-152.223549
-151.2246344
-150.2356678
-149.2565226
-148.2870746
-147.3272019
-146.3767847
-145.4357058
-144.50385
-143.5811043
-142.6673577
-141.762501
-140.8664264
-139.9790272
-139.1001975
-138.2298318
-137.3678251
-136.5140726
-135.6684694
-134.8309114
-134.0012945
-133.1795156
-132.365473
-131.5590661
-130.7601966
-129.9687685
-129.1846881
-128.4078645
-127.6382093
-126.8756359
-126.1200599
-125.3713979
-124.6295674
-123.8944864
-123.1660732
-122.4442462
-121.7289242
-121.0200266
-120.3174737
-119.6211876
-118.931092
-118.2471125
-117.5691772
-116.8972157
-116.2311592
-115.5709399
-114.9164902
-114.2677425
-113.6246289
-112.9870807
-112.3550293
-111.7284066
-111.1071456
-110.4911811
-109.8804507
-109.2748945
-108.6744557
-108.0790798
-107.4887137
-106.9033051
-106.3228014
-105.747149
-105.1762931
-104.6101775
-104.0487454
-103.4919404
-102.9397066
-102.3919905
-101.8487408
-101.3099089
-100.7754485
-100.2453154
-99.71946592
-99.19785648
-98.68044263
-98.16717853
-97.65801691
-97.15290942
-96.65180724
-96.15466191
-95.66142624
-95.17205483
-94.68650455
-94.20473461
-93.72670619
-93.25238212
-92.78172621
-92.31470271
-91.85127579
-91.39140928
-90.93506655
-90.48221058
-90.03280422
-89.58681042
-89.14419247
-88.7049143
-88.26894053
-87.83623655
-87.40676853
-86.98050329
-86.55740834
-86.13745189
-85.72060279
-85.30683058
-84.89610545
-84.48839805
-84.08367943
-83.68192087
-83.28309379
-82.88716975
-82.49412057
-82.10391827
-81.71653513
-81.33194364
-80.95011633
-80.57102566
-80.19464383
-79.8209429
-79.44989487
-79.08147207
-78.71564719
-78.35239307
-77.99168299
-77.63349123
-77.27779303
-76.92456386
-76.5737795
-76.22541701
-75.87945484
-75.53587203
-75.19464865
-74.85576678
-74.51920968
-74.18496105
-73.85300409
-73.52331756
-73.19587052
-72.87061823
-72.5474991
-72.22643784
-71.90735227
-71.59015808
-71.27478593
-70.96129711
-70.63327249
-70.27308884
-69.87806997
-69.44545694
-68.97237681
-68.45578219
-67.89230326
-67.27825
-66.60955769
-65.88184772
-65.0907113
-64.23165262
-63.30044725
-62.29327618
-61.20646218
-60.03698154
-58.78221784
-57.43974131
-56.00832934
-54.48688519
-52.87543829
-51.17557554
-49.38909364
-47.52095595
-45.57601202
-43.56309177
-41.49116323
-39.37361505
-37.22465694
-35.06298182
-32.90951542
-30.78979502
-28.73336988
-26.77587514
-24.95924274
-23.33530139
-21.96725074
-20.93634469
-20.34847284
-429.8049951
-698.7556822
-1240.394207
-2045.429651
-2992.116066
-3944.320185
-4825.154322
-5600.394449
-6255.767444
-6787.922265
-7239.150554
-7714.720675
-8294.91791
-9006.817294
-436.6329816
-708.7692422
-1254.831592
-2062.900486
-3010.164983
-3961.574623
-4840.704736
-5612.472237
-6261.085868
-6782.018009
-7216.439218
-7662.622866
-8181.358942
-8761.752038
-443.436095
-718.7021649
-1269.032584
-2079.845171
-3027.213315
-3976.971737
-4852.844797
-5618.568913
-6256.730683
-6762.098758
-7175.502692
-7588.93912
-8049.455351
-8533.074681
-450.214048
-728.5539571
-1282.997183
-2096.265776
-3043.266181
-3990.52699
-4861.640497
-5618.947075
-6243.544597
-6730.268957
-7120.543558
-7501.248224
-7910.678272
-8323.167361
-456.966559
-738.3241527
-1296.725488
-2112.164733
-3058.330301
-4002.262552
-4867.181604
-5613.932852
-6222.472601
-6688.620349
-7055.202342
-7405.011662
-7770.991633
-8130.131466
-463.6933513
-748.0123116
-1310.217701
-2127.544832
-3072.413948
-4012.206937
-4869.578318
-5603.896633
-6194.489835
-6639.076337
-6982.425792
-7303.96375
-7633.33935
-7951.3283
-470.3941536
-757.6180208
-1323.47412
-2142.409208
-3085.526902
-4020.394498
-4868.957646
-5589.235741
-6160.548521
-6583.317536
-6904.499992
-7200.583654
-7499.075231
-7784.381502
-477.0686998
-767.1408928
-1336.495139
-2156.761337
-3097.680385
-4026.864884
-4865.45993
-5570.359453
-6121.542855
-6522.764125
-6823.154675
-7096.487802
-7368.734443
-7627.369766
-483.7167292
-776.5805664
-1349.281244
-2170.605023
-3108.887
-4031.662482
-4859.235502
-5547.676484
-6078.289054
-6458.588793
-6739.677475
-6992.715133
-7242.442521
-7478.792551
-490.3379864
-785.9367056
-1361.833016
-2183.944393
-3119.160657
-4034.835817
-4850.441459
-5521.585313
-6031.515608
-6391.74269
-6655.017662
-6889.927496
-7120.13041
-7337.482325
-496.9322211
-795.2089998
-1374.151123
-2196.783884
-3128.516488
-4036.436928
-4839.238654
-5492.466807
-5981.862045
-6322.990559
-6569.873198
-6788.540707
-7001.641714
-7202.52477
-503.4991884
-804.3971629
-1386.236321
-2209.128238
-3136.970761
-4036.520754
-4825.78912
-5460.679591
-5929.884126
-6252.944369
-6484.7556
-6688.810015
-6886.787775
-7073.196326
-510.0386486
-813.5009337
-1398.089454
-2220.98249
-3144.540787
-4035.14455
-4810.254005
-5426.557629
-5876.060894
-6182.091129
-6400.038686
-6590.887139
-6775.375795
-6948.916517
-516.5503674
-822.5200752
-1409.711448
-2232.351953
-3151.244828
-4032.367353
-4792.791872
-5390.408894
-5820.80215
-6110.81773
-6315.996231
-6494.856606
-6667.221244
-6829.213428
-523.0341155
-831.4543743
-1421.103313
-2243.24221
-3157.101995
-4028.249478
-4773.557287
-5352.515004
-5764.456684
-6039.43202
-6232.829239
-6400.75883
-6562.152582
-6713.69874
-529.489669
-840.3036417
-1432.266138
-2253.659102
-3162.132164
-4022.852042
-4752.699669
-5313.131793
-5707.320726
-5968.179074
-6150.684567
-6308.605598
-6460.013126
-6602.048948
-535.9168091
-849.0677112
-1443.201092
-2263.60871
-3166.35587
-4016.236522
-4730.362441
-5272.490509
-5649.645575
-5897.253913
-6069.668466
-6218.390408
-6360.66127
-6493.991125
-542.3153223
-857.7464398
-1453.909419
-2273.097347
-3169.794221
-4008.464366
-4706.68243
-5230.799293
-5591.644095
-5826.811895
-5989.857169
-6130.094955
-6263.96925
-6389.292347
-548.6850003
-866.3397075
-1464.392436
-2282.131537
-3172.468802
-3999.596637
-4681.789493
-5188.244833
-5533.496388
-5756.97701
-5911.304786
-6043.693178
-6169.821332
-6287.751835
-555.0256399
-874.8474164
-1474.651536
-2290.718008
-3174.401587
-3989.693711
-4655.806312
-5144.994114
-5475.354809
-5687.848147
-5834.048717
-5959.154094
-6078.11226
-6189.194832
-561.3370431
-883.2694911
-1484.688176
-2298.86367
-3175.614856
-3978.815006
-4628.848326
-5101.196168
-5417.348258
-5619.503855
-5758.113414
-5876.443885
-5988.746056
-6093.467672
-567.6190171
-891.6058776
-1494.503886
-2306.575607
-3176.131114
-3967.018766
-4601.023781
-5056.983758
-5359.585769
-5552.006211
-5683.513299
-5795.527275
-5901.634892
-6000.433819
-573.8713741
-899.8565438
-1504.100257
-2313.861056
-3175.97301
-3954.361862
-4572.433866
-5012.474951
-5302.159496
-5485.404031
-5610.255096
-5716.368246
-5816.697921
-5909.970823
-580.0939316
-908.0214786
-1513.478944
-2320.727396
-3175.163272
-3940.899641
-4543.172915
-4967.774595
-5245.147233
-5419.735406
-5538.33958
-5638.930386
-5733.860246
-5821.96801
-586.2865122
-916.1006917
-1522.641663
-2327.182134
-3173.724635
-3926.6858
-4513.32865
-4922.975685
-5188.614537
-5355.029602
-5467.762844
-5563.177172
-5653.052094
-5736.324653
-592.4489433
-924.0942133
-1531.590187
-2333.232887
-3171.679782
-3911.772286
-4482.982471
-4878.160612
-5132.616518
-5291.308507
-5398.517245
-5489.072255
-5574.208162
-5652.94841
-598.5810577
-932.0020939
-1540.326344
-2338.887374
-3169.051283
-3896.209221
-4452.209753
-4833.402281
-5077.199339
-5228.587835
-5330.592182
-5416.579683
-5497.267019
-5571.753979
-604.6826932
-939.8244036
-1548.852017
-2344.153394
-3165.861545
-3880.044854
-4421.080166
-4788.765118
-5022.401493
-5166.878167
-5263.974711
-5345.664015
-5422.170587
-5492.662034
-610.7536924
-947.5612321
-1557.169136
-2349.03882
-3162.132762
-3863.325522
-4389.657994
-4744.305963
-4968.254882
-5106.185823
-5198.649996
-5276.290318
-5348.863708
-5415.598417
-616.7939031
-955.212688
-1565.279683
-2353.551584
-3157.886872
-3846.095639
-4358.002459
-4700.074874
-4914.78572
-5046.513545
-5134.601628
-5208.424143
-5277.293816
-5340.493493
-622.803178
-962.7788986
-1573.185682
-2357.699662
-3153.145516
-3828.397693
-4326.168035
-4656.115856
-4862.015286
-4987.861037
-5071.811899
-5142.031527
-5207.410675
-5267.281605
-628.781375
-970.2600098
-1580.889203
-2361.491064
-3147.930004
-3810.272254
-4294.204759
-4612.467495
-4809.960566
-4930.22542
-5010.262063
-5077.079033
-5139.166145
-5195.900582
-634.7283564
-977.6561851
-1588.392355
-2364.933823
-3142.261283
-3791.758
-4262.158526
-4569.163541
-4758.634814
-4873.601632
-4949.93258
-5013.533773
-5072.513972
-5126.291333
-640.64399
-984.9676058
-1595.697286
-2368.035979
-3136.159909
-3772.891743
-4230.071369
-4526.233413
-4708.048029
-4817.982767
-4890.803303
-4951.363407
-5007.409593
-5058.397526
-646.5281481
-992.1944703
-1602.806178
-2370.805577
-3129.646023
-3753.708466
-4197.981732
-4483.702651
-4658.207374
-4763.360358
-4832.853598
-4890.536111
-4943.80998
-4992.165331
-652.3807079
-999.3369938
-1609.72125
-2373.250647
-3122.739329
-3734.241369
-4165.924716
-4441.593315
-4609.11753
-4709.724594
-4776.062439
-4831.020566
-4881.67353
-4927.543209
-658.2015515
-1006.395408
-1616.444749
-2375.379201
-3115.459081
-3714.521918
-4133.932329
-4399.924351
-4560.781007
-4657.064522
-4720.408512
-4772.78598
-4820.959983
-4864.481731
-663.9905658
-1013.369961
-1622.978953
-2377.199221
-3107.824061
-3694.579891
-4102.033702
-4358.711909
-4513.198419
-4605.368216
-4665.870307
-4715.802106
-4761.630358
-4802.933416
-669.7476424
-1020.260915
-1629.326165
-2378.718651
-3099.852575
-3674.443442
-4070.25531
-4317.969634
-4466.368715
-4554.622947
-4612.426216
-4660.039261
-4703.646871
-4742.852581
-675.4726776
-1027.068549
-1635.488712
-2379.945385
-3091.562437
-3654.13915
-4038.621165
-4277.708917
-4420.289393
-4504.815312
-4560.054589
-4605.468306
-4646.972858
-4684.19521
-681.1655724
-1033.793157
-1641.468945
-2380.887268
-3082.970967
-3633.692083
-4007.153001
-4237.939128
-4374.956674
-4455.931352
-4508.733787
-4552.06063
-4591.572709
-4626.918849
-686.8262325
-1040.435047
-1647.269233
-2381.552079
-3074.094983
-3613.125852
-3975.870443
-4198.667813
-4330.365668
-4407.956654
-4458.442226
-4499.788152
-4537.411824
-4570.982534
-692.4545681
-1046.99454
-1652.891964
-2381.947529
-3064.950801
-3592.462674
-3944.791172
-4159.900893
-4286.510523
-4360.876443
-4409.158428
-4448.623333
-4484.456601
-4516.346725
-698.0504942
-1053.471972
-1658.339541
-2382.081255