/*--------------------------------*- C++ -*----------------------------------*\
  =========                 |
  \\      /  F ield         | OpenFOAM: The Open Source CFD Toolbox
   \\    /   O peration     | Website:  https://openfoam.org
    \\  /    A nd           | Version:  7
     \\/     M anipulation  |
\*---------------------------------------------------------------------------*/
FoamFile
{
    version     2.0;
    format      ascii;
    class       volVectorField;
    location    "0.1";
    object      qAir;
}
// * * * * * * * * * * * * * * * * * * * * * * * * * * * * * * * * * * * * * //

dimensions      [0 -1 0 1 0 0 0];

internalField   nonuniform List<vector> 
1600
(
(66.668 0.012528 -0)
(66.6148 0.0309329 -0)
(66.4941 0.0392461 -0)
(66.3096 0.0390889 -0)
(66.0931 0.031835 -0)
(65.8787 0.0189506 -0)
(65.6996 0.00273356 -0)
(65.5833 -0.013573 -0)
(65.5467 -0.0261841 -0)
(65.5911 -0.0316301 -0)
(65.6995 -0.0279155 -0)
(65.8387 -0.015614 -0)
(65.9663 0.0016487 -0)
(66.0426 0.0178466 -0)
(66.0445 0.0265095 -0)
(65.9752 0.0235242 -0)
(65.8662 0.00962878 -0)
(65.7664 -0.00889901 -0)
(65.7213 -0.0224578 -0)
(65.7501 -0.0230141 -0)
(65.8328 -0.00951216 -0)
(65.9185 0.00981975 -0)
(65.9533 0.0213318 -0)
(65.9167 0.0153994 -0)
(65.84 -0.00453015 -0)
(65.7867 -0.0218423 -0)
(65.8023 -0.0192471 -0)
(65.8701 0.00366819 -0)
(65.9208 0.0248648 -0)
(65.9002 0.0208486 -0)
(65.8273 0.00167926 -0)
(65.7858 0.00172802 -0)
(65.8613 -0.00770552 -0)
(66.0392 -0.135248 -0)
(66.0902 -0.322402 -0)
(65.7749 -0.220423 -0)
(65.4783 0.152295 -0)
(65.8137 0.11111 -0)
(66.1526 -0.180401 -0)
(65.8671 -0.125525 -0)
(66.7115 0.0182463 -0)
(66.6415 0.0452743 -0)
(66.5023 0.0575464 -0)
(66.3022 0.0565778 -0)
(66.073 0.0442869 -0)
(65.8496 0.0231619 -0)
(65.667 -0.00284454 -0)
(65.5543 -0.0282396 -0)
(65.5286 -0.0467429 -0)
(65.5893 -0.0528117 -0)
(65.7155 -0.0436456 -0)
(65.8682 -0.0209762 -0)
(65.9997 0.00833421 -0)
(66.0675 0.0337395 -0)
(66.0502 0.0446647 -0)
(65.9583 0.0353843 -0)
(65.8338 0.00897682 -0)
(65.7343 -0.0222564 -0)
(65.7072 -0.0415848 -0)
(65.763 -0.0369304 -0)
(65.8657 -0.00982925 -0)
(65.9493 0.0223727 -0)
(65.9589 0.0358169 -0)
(65.8909 0.0180406 -0)
(65.8027 -0.0183542 -0)
(65.772 -0.0416731 -0)
(65.8279 -0.0283083 -0)
(65.9142 0.0104173 -0)
(65.938 0.0315297 -0)
(65.877 0.00438921 -0)
(65.8082 -0.0312939 -0)
(65.7764 0.0249058 -0)
(65.7243 0.165959 -0)
(65.7245 0.122163 -0)
(66.005 -0.263737 -0)
(66.2496 -0.413693 -0)
(65.8098 0.114697 -0)
(65.481 0.323176 -0)
(65.916 -0.0215685 -0)
(66.0724 -0.134118 -0)
(66.7315 0.00983414 -0)
(66.6541 0.0250357 -0)
(66.5054 0.0324609 -0)
(66.2964 0.0312913 -0)
(66.0597 0.022128 -0)
(65.8316 0.00673961 -0)
(65.6482 -0.0117427 -0)
(65.5394 -0.0289512 -0)
(65.5221 -0.0400034 -0)
(65.5942 -0.0408546 -0)
(65.7313 -0.0299878 -0)
(65.8906 -0.00977333 -0)
(66.021 0.0133536 -0)
(66.079 0.0305407 -0)
(66.0461 0.0339311 -0)
(65.9395 0.0207578 -0)
(65.8086 -0.00389493 -0)
(65.7158 -0.0278817 -0)
(65.7066 -0.0374129 -0)
(65.7818 -0.0255032 -0)
(65.8921 0.00134804 -0)
(65.9641 0.0243591 -0)
(65.9489 0.0243298 -0)
(65.8626 -0.00145796 -0)
(65.7802 -0.0317113 -0)
(65.7767 -0.0362715 -0)
(65.8544 -0.00753993 -0)
(65.9299 0.0245318 -0)
(65.9148 0.0194522 -0)
(65.8374 -0.0326661 -0)
(65.8478 -0.101167 -0)
(65.9831 -0.112545 -0)
(65.9585 0.0361914 -0)
(65.6095 0.282622 -0)
(65.5543 0.229252 -0)
(66.1534 -0.222806 -0)
(66.2151 -0.347056 -0)
(65.6775 0.12339 -0)
(65.6954 0.223862 -0)
(65.9403 0.00879217 -0)
(66.7463 0.00759337 -0)
(66.6642 0.0200154 -0)
(66.5085 0.0268935 -0)
(66.2919 0.0265653 -0)
(66.0484 0.0188736 -0)
(65.8158 0.00510842 -0)
(65.6314 -0.0118998 -0)
(65.5261 -0.0279633 -0)
(65.5167 -0.0382986 -0)
(65.5993 -0.0389236 -0)
(65.7466 -0.0283753 -0)
(65.9116 -0.00905515 -0)
(66.04 0.0126559 -0)
(66.0881 0.0281255 -0)
(66.0404 0.0299353 -0)
(65.9205 0.0159394 -0)
(65.7851 -0.00815928 -0)
(65.7008 -0.0299809 -0)
(65.7096 -0.03638 -0)
(65.8018 -0.022127 -0)
(65.9155 0.00406459 -0)
(65.9723 0.0225039 -0)
(65.933 0.016116 -0)
(65.8348 -0.0131557 -0)
(65.7679 -0.0403199 -0)
(65.7961 -0.0366789 -0)
(65.8887 -0.00229528 -0)
(65.9412 0.0266149 -0)
(65.8808 0.0244236 -0)
(65.7564 0.0197527 -0)
(65.7283 0.0246696 -0)
(65.9138 -0.0572235 -0)
(66.1195 -0.225207 -0)
(65.9176 -0.126028 -0)
(65.4996 0.307858 -0)
(65.6733 0.238457 -0)
(66.156 -0.286699 -0)
(66.052 -0.197589 -0)
(65.8014 0.0253527 -0)
(65.857 0.0121305 -0)
(66.7591 0.00669899 -0)
(66.6734 0.0180998 -0)
(66.512 0.0249829 -0)
(66.2884 0.0253587 -0)
(66.0382 0.0186422 -0)
(65.8008 0.00576842 -0)
(65.6151 -0.010664 -0)
(65.513 -0.026563 -0)
(65.5112 -0.0371245 -0)
(65.6041 -0.0382741 -0)
(65.7612 -0.0284365 -0)
(65.9317 -0.00991887 -0)
(66.0582 0.0109627 -0)
(66.0962 0.0256307 -0)
(66.0339 0.0267693 -0)
(65.9014 0.0124529 -0)
(65.7626 -0.0112849 -0)
(65.6876 -0.0318424 -0)
(65.7145 -0.0363972 -0)
(65.8223 -0.020908 -0)
(65.9368 0.00433146 -0)
(65.9762 0.0192979 -0)
(65.9133 0.00943265 -0)
(65.8061 -0.0192442 -0)
(65.7567 -0.0410896 -0)
(65.8148 -0.0337509 -0)
(65.9177 -0.00763111 -0)
(65.9566 -0.007128 -0)
(65.9079 -0.0517063 -0)
(65.8376 -0.0598641 -0)
(65.7709 0.0716306 -0)
(65.7332 0.192842 -0)
(65.8897 -0.0358735 -0)
(66.1426 -0.370418 -0)
(65.9188 -0.0588537 -0)
(65.5588 0.3043 -0)
(65.7791 0.126524 -0)
(65.9895 -0.0985347 -0)
(65.9051 -0.0488695 -0)
(65.9025 -0.0138108 -0)
(66.7711 0.00637086 -0)
(66.6824 0.017443 -0)
(66.5158 0.0245278 -0)
(66.2856 0.0255169 -0)
(66.0288 0.0195677 -0)
(65.7865 0.00734155 -0)
(65.599 -0.00877516 -0)
(65.4996 -0.0247968 -0)
(65.505 -0.0359082 -0)
(65.608 -0.0379232 -0)
(65.7749 -0.0290883 -0)
(65.951 -0.0115193 -0)
(66.0756 0.00860859 -0)
(66.1039 0.0227636 -0)
(66.0272 0.0236077 -0)
(65.8824 0.00924128 -0)
(65.7408 -0.0141364 -0)
(65.6757 -0.0337472 -0)
(65.7205 -0.0370008 -0)
(65.8425 -0.0208862 -0)
(65.9557 0.00278653 -0)
(65.9774 0.0135446 -0)
(65.8945 -0.000435602 -0)
(65.7843 -0.0274598 -0)
(65.7534 -0.0385125 -0)
(65.8296 -0.01546 -0)
(65.9153 0.0240512 -0)
(65.8971 0.0299428 -0)
(65.8281 -0.0416552 -0)
(65.8797 -0.15108 -0)
(65.981 -0.131119 -0)
(65.8063 0.109917 -0)
(65.5562 0.249784 -0)
(65.8946 -0.0622084 -0)
(66.1743 -0.294505 -0)
(65.8587 -0.0845702 -0)
(65.7532 0.0946765 -0)
(65.8766 0.0242566 -0)
(65.8861 0.00695725 -0)
(65.9092 -0.00613623 -0)
(66.783 0.00631609 -0)
(66.6916 0.0174333 -0)
(66.5201 0.0248594 -0)
(66.2834 0.0264494 -0)
(66.0201 0.0211914 -0)
(65.7725 0.0095189 -0)
(65.583 -0.00639358 -0)
(65.4858 -0.0226961 -0)
(65.498 -0.0345909 -0)
(65.6109 -0.037771 -0)
(65.7876 -0.0302396 -0)
(65.9694 -0.0138119 -0)
(66.0924 0.00557324 -0)
(66.1112 0.0194366 -0)
(66.0204 0.0202935 -0)
(65.8637 0.00605522 -0)
(65.7196 -0.0170833 -0)
(65.6648 -0.0361361 -0)
(65.7273 -0.0384248 -0)
(65.862 -0.0214209 -0)
(65.9712 0.00190601 -0)
(65.973 0.00978491 -0)
(65.8723 -0.00976442 -0)
(65.768 -0.042829 -0)
(65.7687 -0.0575113 -0)
(65.8773 -0.0362425 -0)
(65.9631 0.0065403 -0)
(65.8909 0.0490053 -0)
(65.7269 0.0740708 -0)
(65.7482 0.0293441 -0)
(66.0319 -0.118378 -0)
(66.1141 -0.187816 -0)
(65.7176 0.0527743 -0)
(65.5983 0.264091 -0)
(65.8964 -0.0177594 -0)
(65.948 -0.130103 -0)
(65.8879 -0.0289264 -0)
(65.9018 -0.00324425 -0)
(65.8747 0.0183255 -0)
(65.8946 0.00504916 -0)
(66.7949 0.00638445 -0)
(66.701 0.0177286 -0)
(66.5248 0.0255766 -0)
(66.2819 0.0277851 -0)
(66.0119 0.0232162 -0)
(65.7589 0.0120938 -0)
(65.5668 -0.00363773 -0)
(65.4714 -0.0203071 -0)
(65.4899 -0.0331725 -0)
(65.6124 -0.0378049 -0)
(65.7989 -0.0318974 -0)
(65.9868 -0.0168455 -0)
(66.1088 0.00176856 -0)
(66.1186 0.0155614 -0)
(66.0138 0.0168007 -0)
(65.845 0.00295658 -0)
(65.6986 -0.0200954 -0)
(65.6543 -0.039358 -0)
(65.7352 -0.041903 -0)
(65.8828 -0.0248623 -0)
(65.987 -0.000621949 -0)
(65.9657 0.00979999 -0)
(65.8419 -0.00580615 -0)
(65.7366 -0.0358651 -0)
(65.76 -0.0532333 -0)
(65.8936 -0.051115 -0)
(66.0005 -0.0611313 -0)
(65.9646 -0.091837 -0)
(65.8084 -0.0595142 -0)
(65.6873 0.0822825 -0)
(65.7639 0.123398 -0)
(65.9775 -0.129436 -0)
(66.0081 -0.272719 -0)
(65.8241 0.0564098 -0)
(65.7801 0.101684 -0)
(65.8475 0.0229765 -0)
(65.88 -0.00742507 -0)
(65.9238 -0.0329195 -0)
(65.8944 -0.00728247 -0)
(65.8934 0.00077768 -0)
(66.8071 0.00648506 -0)
(66.7108 0.0181025 -0)
(66.5301 0.0263906 -0)
(66.281 0.0292335 -0)
(66.0044 0.0253902 -0)
(65.7456 0.0148739 -0)
(65.5506 -0.000632438 -0)
(65.4563 -0.0176896 -0)
(65.4805 -0.0316608 -0)
(65.6122 -0.0380038 -0)
(65.8085 -0.0340474 -0)
(66.003 -0.0206571 -0)
(66.1248 -0.00293513 -0)
(66.1263 0.0109108 -0)
(66.0078 0.0128955 -0)
(65.8268 -6.44468e-05 -0)
(65.6773 -0.0226338 -0)
(65.6429 -0.042136 -0)
(65.7418 -0.0458971 -0)
(65.9033 -0.0313952 -0)
(66.0059 -0.0106349 -0)
(65.9678 -0.00185666 -0)
(65.8266 -0.0122963 -0)
(65.7206 -0.0264533 -0)
(65.7535 -0.0158512 -0)
(65.8694 0.0235115 -0)
(65.9224 0.0347973 -0)
(65.8925 -0.0519758 -0)
(65.901 -0.168942 -0)
(65.9311 -0.104639 -0)
(65.8201 0.133003 -0)
(65.718 0.152369 -0)
(65.9035 -0.102254 -0)
(65.9727 -0.0839325 -0)
(65.863 -0.026576 -0)
(65.8389 0.0216016 -0)
(65.832 0.0240265 -0)
(65.9019 -0.0192409 -0)
(65.9084 -0.0167101 -0)
(65.902 -0.005187 -0)
(66.8195 0.0065566 -0)
(66.7209 0.0183932 -0)
(66.536 0.0270794 -0)
(66.2809 0.0305541 -0)
(65.9976 0.0274874 -0)
(65.7329 0.0176716 -0)
(65.5342 0.00248726 -0)
(65.4404 -0.0149206 -0)
(65.4696 -0.0300782 -0)
(65.61 -0.0383476 -0)
(65.8162 -0.0366444 -0)
(66.0179 -0.0252005 -0)
(66.1404 -0.00853548 -0)
(66.1344 0.00535095 -0)
(66.0028 0.00816839 -0)
(65.8095 -0.00377328 -0)
(65.6566 -0.0255697 -0)
(65.6311 -0.0444466 -0)
(65.7459 -0.047457 -0)
(65.9181 -0.0328739 -0)
(66.0165 -0.0153637 -0)
(65.9641 -0.0157113 -0)
(65.8173 -0.0398369 -0)
(65.733 -0.0671277 -0)
(65.81 -0.0621513 -0)
(65.9443 -0.00380857 -0)
(65.925 0.0790506 -0)
(65.7609 0.0961071 -0)
(65.7557 -0.0144999 -0)
(65.9892 -0.137083 -0)
(66.0209 -0.0801069 -0)
(65.7422 0.0679236 -0)
(65.7718 0.0541123 -0)
(65.8998 -0.00839621 -0)
(65.8856 -0.0759809 -0)
(65.8981 -0.0385449 -0)
(65.8392 0.011457 -0)
(65.8831 -0.000965941 -0)
(65.9085 -0.00898337 -0)
(65.9061 -0.00566126 -0)
(66.832 0.00655454 -0)
(66.7313 0.0184778 -0)
(66.5423 0.0274637 -0)
(66.2815 0.0315367 -0)
(65.9915 0.0292942 -0)
(65.7206 0.020298 -0)
(65.518 0.00558166 -0)
(65.4237 -0.0120785 -0)
(65.4571 -0.0284497 -0)
(65.6056 -0.0388364 -0)
(65.8217 -0.0396953 -0)
(66.0311 -0.0304829 -0)
(66.1554 -0.0149611 -0)
(66.143 -0.000855377 -0)
(65.9987 0.00304245 -0)
(65.793 -0.00803509 -0)
(65.6367 -0.0300746 -0)
(65.6211 -0.049962 -0)
(65.7534 -0.0525995 -0)
(65.9354 -0.0334802 -0)
(66.023 -0.00733575 -0)
(65.9433 -0.000429577 -0)
(65.7752 -0.026349 -0)
(65.6983 -0.0692982 -0)
(65.8168 -0.0991619 -0)
(66.0106 -0.0981048 -0)
(66.0223 -0.0598614 -0)
(65.799 0.00988771 -0)
(65.6678 0.056607 -0)
(65.8655 0.0073128 -0)
(66.0251 -0.0929115 -0)
(65.8522 -0.097126 -0)
(65.8271 0.0056408 -0)
(65.8426 0.0555187 -0)
(65.8328 -0.0199949 -0)
(65.9263 -0.0398869 -0)
(65.8696 -0.00232669 -0)
(65.8815 0.00566938 -0)
(65.9037 -0.000928171 -0)
(65.904 -0.00344901 -0)
(66.8445 0.00644498 -0)
(66.7418 0.0182594 -0)
(66.549 0.0273942 -0)
(66.2827 0.0319916 -0)
(65.9863 0.0305987 -0)
(65.7091 0.0225483 -0)
(65.5019 0.00849276 -0)
(65.4064 -0.00923641 -0)
(65.4429 -0.0267516 -0)
(65.5988 -0.0393929 -0)
(65.8246 -0.0431783 -0)
(66.0426 -0.036667 -0)
(66.17 -0.0225708 -0)
(66.1524 -0.00797566 -0)
(65.9957 -0.00200689 -0)
(65.7764 -0.0109078 -0)
(65.6146 -0.0327765 -0)
(65.6086 -0.0559942 -0)
(65.7624 -0.0644742 -0)
(65.9634 -0.0488349 -0)
(66.0495 -0.0169591 -0)
(65.9451 0.00743893 -0)
(65.7484 0.00550042 -0)
(65.6602 -0.013654 -0)
(65.7811 -0.026005 -0)
(65.9836 -0.0371958 -0)
(66.033 -0.0728547 -0)
(65.8774 -0.0964754 -0)
(65.7532 -0.030234 -0)
(65.8397 0.0714147 -0)
(65.9164 0.0420122 -0)
(65.8407 -0.0804644 -0)
(65.9245 -0.0546242 -0)
(65.8741 0.0426574 -0)
(65.7902 0.0267351 -0)
(65.9158 -0.00958156 -0)
(65.8847 -0.00242527 -0)
(65.8845 0.00486775 -0)
(65.8994 0.00142191 -0)
(65.9009 -0.00166928 -0)
(66.8567 0.00620186 -0)
(66.7522 0.0176617 -0)
(66.556 0.0267483 -0)
(66.2847 0.0317539 -0)
(65.9821 0.0311991 -0)
(65.6985 0.0241993 -0)
(65.4862 0.0110126 -0)
(65.3885 -0.00652733 -0)
(65.427 -0.0249727 -0)
(65.5892 -0.0398207 -0)
(65.8244 -0.046765 -0)
(66.0517 -0.0435113 -0)
(66.1841 -0.0315927 -0)
(66.1635 -0.0170574 -0)
(65.9957 -0.00871641 -0)
(65.7622 -0.0136319 -0)
(65.5916 -0.0318618 -0)
(65.5894 -0.0545252 -0)
(65.7606 -0.0681086 -0)
(65.9829 -0.0633144 -0)
(66.0793 -0.0428872 -0)
(65.9658 -0.0221311 -0)
(65.7541 -0.016052 -0)
(65.6668 -0.0168493 -0)
(65.7933 0.00495614 -0)
(65.9638 0.0459502 -0)
(65.963 0.0365074 -0)
(65.8416 -0.0510062 -0)
(65.8357 -0.0904757 -0)
(65.9377 0.0149478 -0)
(65.8733 0.0995703 -0)
(65.7556 0.0089961 -0)
(65.9503 -0.0458986 -0)
(65.924 0.010237 -0)
(65.7806 0.0287272 -0)
(65.8972 0.00660137 -0)
(65.884 -0.00062362 -0)
(65.8854 0.00135568 -0)
(65.8971 0.000346674 -0)
(65.8998 -0.000941756 -0)
(66.8684 0.00580656 -0)
(66.7623 0.0166269 -0)
(66.5631 0.0254274 -0)
(66.2872 0.0306852 -0)
(65.9788 0.0309217 -0)
(65.689 0.0250488 -0)
(65.4711 0.0129214 -0)
(65.3704 -0.00416381 -0)
(65.4096 -0.0232665 -0)
(65.577 -0.0401187 -0)
(65.8209 -0.0501585 -0)
(66.0578 -0.0503056 -0)
(66.1965 -0.0410001 -0)
(66.1753 -0.0273235 -0)
(65.9991 -0.0176989 -0)
(65.7532 -0.019526 -0)
(65.5737 -0.0335372 -0)
(65.5723 -0.0514316 -0)
(65.7536 -0.0609259 -0)
(65.9886 -0.0560453 -0)
(66.0907 -0.0433786 -0)
(65.9719 -0.0374376 -0)
(65.7537 -0.0477216 -0)
(65.6812 -0.0633007 -0)
(65.8439 -0.0485012 -0)
(66.0151 0.0177152 -0)
(65.9361 0.0758127 -0)
(65.7504 0.0314277 -0)
(65.8191 -0.0657062 -0)
(66.0298 -0.0473386 -0)
(65.9105 0.0568148 -0)
(65.6953 0.0438627 -0)
(65.9257 -0.017663 -0)
(65.9487 -0.00843036 -0)
(65.7866 0.0114971 -0)
(65.8864 0.00557075 -0)
(65.8795 -0.001419 -0)
(65.8854 -0.00148023 -0)
(65.8971 -0.000832599 -0)
(65.9002 -0.000672677 -0)
(66.8792 0.00524971 -0)
(66.7719 0.0151208 -0)
(66.5701 0.023359 -0)
(66.2901 0.028663 -0)
(65.9764 0.0296013 -0)
(65.6805 0.0249171 -0)
(65.457 0.0140593 -0)
(65.3523 -0.00227054 -0)
(65.391 -0.0217514 -0)
(65.5623 -0.0404674 -0)
(65.8142 -0.0536271 -0)
(66.0609 -0.0572249 -0)
(66.2071 -0.0503688 -0)
(66.1868 -0.0370874 -0)
(66.0035 -0.025814 -0)
(65.7464 -0.0253194 -0)
(65.5597 -0.0380675 -0)
(65.562 -0.055415 -0)
(65.7559 -0.0612483 -0)
(66.0005 -0.0459686 -0)
(66.0979 -0.019852 -0)
(65.9614 -0.00826697 -0)
(65.7282 -0.0280586 -0)
(65.666 -0.0672642 -0)
(65.8743 -0.0862033 -0)
(66.0881 -0.0463935 -0)
(65.9768 0.0316405 -0)
(65.7001 0.05318 -0)
(65.757 -0.0181362 -0)
(66.0602 -0.0580404 -0)
(65.9645 0.0029024 -0)
(65.6811 0.0305745 -0)
(65.898 -0.0019881 -0)
(65.9531 -0.0118911 -0)
(65.7946 -0.000931313 -0)
(65.8842 0.0013487 -0)
(65.877 -0.00149072 -0)
(65.8859 -0.00169918 -0)
(65.898 -0.000697593 -0)
(65.9006 -0.00027676 -0)
(66.8887 0.00453269 -0)
(66.7805 0.013142 -0)
(66.5766 0.020518 -0)
(66.2934 0.0255993 -0)
(65.975 0.0270597 -0)
(65.6734 0.0235555 -0)
(65.4439 0.0141939 -0)
(65.3346 -0.000931352 -0)
(65.3714 -0.0202591 -0)
(65.5451 -0.0404995 -0)
(65.8041 -0.0569198 -0)
(66.061 -0.0646295 -0)
(66.2166 -0.0609506 -0)
(66.1999 -0.047956 -0)
(66.0108 -0.0332905 -0)
(65.741 -0.0274735 -0)
(65.5437 -0.0373852 -0)
(65.5491 -0.0584728 -0)
(65.7631 -0.0723673 -0)
(66.03 -0.0582168 -0)
(66.1284 -0.0154031 -0)
(65.9637 0.0256606 -0)
(65.6947 0.0275487 -0)
(65.6231 -0.0137506 -0)
(65.8648 -0.0592287 -0)
(66.133 -0.0598808 -0)
(66.0357 -0.00596619 -0)
(65.7006 0.0421112 -0)
(65.7079 0.0166145 -0)
(66.0508 -0.0315482 -0)
(65.9991 -0.0149794 -0)
(65.6904 0.0145561 -0)
(65.8832 0.00610093 -0)
(65.9498 -0.00540293 -0)
(65.7998 -0.002705 -0)
(65.8859 0.000652478 -0)
(65.8764 0.000237051 -0)
(65.8862 -0.000157191 -0)
(65.8985 0.000230321 -0)
(65.9005 0.000381262 -0)
(66.8968 0.00366548 -0)
(66.7878 0.0107172 -0)
(66.5825 0.016939 -0)
(66.2967 0.0214981 -0)
(65.9744 0.0231989 -0)
(65.6677 0.0206975 -0)
(65.4325 0.0128918 -0)
(65.3178 -0.000608157 -0)
(65.3514 -0.0189814 -0)
(65.5256 -0.0397646 -0)
(65.7901 -0.0587626 -0)
(66.0569 -0.0707929 -0)
(66.2237 -0.071639 -0)
(66.2145 -0.0607881 -0)
(66.024 -0.0434054 -0)
(65.7423 -0.0296363 -0)
(65.5287 -0.0302061 -0)
(65.527 -0.0487135 -0)
(65.7562 -0.0737157 -0)
(66.0574 -0.079486 -0)
(66.1818 -0.0454205 -0)
(66.0044 0.0157767 -0)
(65.6888 0.0581247 -0)
(65.5792 0.0473153 -0)
(65.8281 0.00142808 -0)
(66.1413 -0.0273379 -0)
(66.0788 -0.0073716 -0)
(65.7227 0.0349639 -0)
(65.6833 0.0380273 -0)
(66.0286 0.00328586 -0)
(66.0106 -0.00544708 -0)
(65.7022 0.0101685 -0)
(65.878 0.011507 -0)
(65.9443 0.00317959 -0)
(65.8007 0.000605262 -0)
(65.8872 0.00161897 -0)
(65.8762 0.0015282 -0)
(65.8859 0.000940669 -0)
(65.8985 0.000881181 -0)
(65.9003 0.00112607 -0)
(66.9031 0.00266568 -0)
(66.7937 0.0078868 -0)
(66.5874 0.0126753 -0)
(66.2997 0.0164239 -0)
(65.9742 0.0180703 -0)
(65.6631 0.016302 -0)
(65.4226 0.00989631 -0)
(65.3027 -0.00187436 -0)
(65.3322 -0.018764 -0)
(65.5053 -0.0390473 -0)
(65.7731 -0.0592291 -0)
(66.0482 -0.0743991 -0)
(66.2266 -0.079638 -0)
(66.2281 -0.0724103 -0)
(66.042 -0.0549354 -0)
(65.7542 -0.0348572 -0)
(65.5246 -0.0230864 -0)
(65.5056 -0.0288036 -0)
(65.7323 -0.0519117 -0)
(66.0583 -0.075932 -0)
(66.2237 -0.072534 -0)
(66.0672 -0.0272105 -0)
(65.7262 0.034717 -0)
(65.5664 0.064843 -0)
(65.7902 0.0456042 -0)
(66.1242 0.0110065 -0)
(66.098 0.00457221 -0)
(65.746 0.0289906 -0)
(65.6762 0.0426677 -0)
(66.0073 0.0244841 -0)
(66.006 0.00734345 -0)
(65.7073 0.00893621 -0)
(65.8763 0.0109134 -0)
(65.9389 0.00602484 -0)
(65.7983 0.00186467 -0)
(65.8868 0.000929985 -0)
(65.8758 0.000806241 -0)
(65.8856 0.000681128 -0)
(65.8987 0.00100683 -0)
(65.901 0.00185874 -0)
(66.9074 0.00156388 -0)
(66.7978 0.00471903 -0)
(66.5911 0.00778348 -0)
(66.3021 0.0103954 -0)
(65.9743 0.0116808 -0)
(65.6595 0.0104158 -0)
(65.4143 0.00530826 -0)
(65.2892 -0.00466103 -0)
(65.3143 -0.0197768 -0)
(65.4852 -0.038989 -0)
(65.7547 -0.0594387 -0)
(66.0365 -0.0765761 -0)
(66.2257 -0.0852162 -0)
(66.2392 -0.0815325 -0)
(66.0616 -0.0654335 -0)
(65.7742 -0.0419865 -0)
(65.5347 -0.0204255 -0)
(65.4982 -0.0107775 -0)
(65.7091 -0.0192704 -0)
(66.0368 -0.0423613 -0)
(66.2305 -0.0617473 -0)
(66.1116 -0.0523558 -0)
(65.7809 -0.00906353 -0)
(65.5901 0.0372636 -0)
(65.7743 0.0494544 -0)
(66.1003 0.0288837 -0)
(66.0967 0.0105373 -0)
(65.7608 0.0159732 -0)
(65.6788 0.0282165 -0)
(65.9933 0.0229899 -0)
(65.995 0.0086177 -0)
(65.7057 0.00300961 -0)
(65.8751 0.00319292 -0)
(65.9353 0.00148575 -0)
(65.7956 -0.000937521 -0)
(65.8861 -0.00151828 -0)
(65.8759 -0.000813686 -0)
(65.8861 0.000195929 -0)
(65.8997 0.00138347 -0)
(65.9025 0.00275438 -0)
(66.9094 0.000400464 -0)
(66.7999 0.00133159 -0)
(66.5931 0.00241075 -0)
(66.3036 0.00348368 -0)
(65.9742 0.00393852 -0)
(65.6567 0.00279856 -0)
(65.4076 -0.00111306 -0)
(65.2776 -0.00896917 -0)
(65.2979 -0.0215793 -0)
(65.4656 -0.0387364 -0)
(65.7355 -0.058473 -0)
(66.0224 -0.0768182 -0)
(66.2217 -0.0885164 -0)
(66.2479 -0.0886831 -0)
(66.0815 -0.0750825 -0)
(65.7992 -0.0502963 -0)
(65.5558 -0.0220426 -0)
(65.5068 -0.000216235 -0)
(65.7007 0.00753595 -0)
(66.0158 -0.00127115 -0)
(66.2137 -0.0210509 -0)
(66.1199 -0.0353971 -0)
(65.8159 -0.0261632 -0)
(65.6249 0.00391281 -0)
(65.7818 0.0272072 -0)
(66.0853 0.024166 -0)
(66.085 0.00751655 -0)
(65.7637 9.81447e-05 -0)
(65.6832 0.00459804 -0)
(65.9877 0.0057903 -0)
(65.986 -0.0011831 -0)
(65.7019 -0.00655278 -0)
(65.8747 -0.0065504 -0)
(65.9348 -0.00519617 -0)
(65.7952 -0.00425643 -0)
(65.8869 -0.00279871 -0)
(65.8775 -0.000721135 -0)
(65.8878 0.00130877 -0)
(65.9012 0.00293718 -0)
(65.904 0.00407105 -0)
(66.9091 -0.000796014 -0)
(66.7999 -0.00216764 -0)
(66.5932 -0.00321743 -0)
(66.3036 -0.00400885 -0)
(65.9736 -0.00494123 -0)
(65.6544 -0.00664478 -0)
(65.4025 -0.00991727 -0)
(65.2687 -0.0157178 -0)
(65.2845 -0.0250512 -0)
(65.4483 -0.0384914 -0)
(65.7167 -0.0553213 -0)
(66.0064 -0.0728304 -0)
(66.2139 -0.0864547 -0)
(66.2526 -0.0909063 -0)
(66.1 -0.0820317 -0)
(65.8272 -0.0592744 -0)
(65.5848 -0.0277889 -0)
(65.5277 0.00262998 -0)
(65.708 0.0228098 -0)
(66.0082 0.0286163 -0)
(66.1964 0.0205485 -0)
(66.1065 0.0040615 -0)
(65.8202 -0.00809706 -0)
(65.6435 -0.00475738 -0)
(65.7946 0.00739519 -0)
(66.0806 0.0104196 -0)
(66.0727 0.000282607 -0)
(65.7578 -0.0112306 -0)
(65.6845 -0.014068 -0)
(65.9875 -0.0119296 -0)
(65.9827 -0.0121771 -0)
(65.7004 -0.0131669 -0)
(65.8765 -0.0111513 -0)
(65.9376 -0.00715801 -0)
(65.798 -0.00332154 -0)
(65.8897 -5.14415e-05 -0)
(65.88 0.00271356 -0)
(65.8898 0.00470321 -0)
(65.9024 0.00571683 -0)
(65.9044 0.00576695 -0)
(66.9064 -0.00201102 -0)
(66.7975 -0.0057446 -0)
(66.5913 -0.00899721 -0)
(66.3018 -0.0117908 -0)
(65.9716 -0.0144306 -0)
(65.6518 -0.0172969 -0)
(65.3985 -0.0207587 -0)
(65.2625 -0.0252818 -0)
(65.2751 -0.0315515 -0)
(65.4354 -0.0403455 -0)
(65.7012 -0.0519508 -0)
(65.9913 -0.065313 -0)
(66.2036 -0.0775542 -0)
(66.2523 -0.0843323 -0)
(66.1132 -0.0809513 -0)
(65.8534 -0.0642308 -0)
(65.6177 -0.0353333 -0)
(65.5574 -0.00160459 -0)
(65.7267 0.02653 -0)
(66.0135 0.0423489 -0)
(66.1891 0.0450352 -0)
(66.0913 0.0362346 -0)
(65.807 0.0205708 -0)
(65.6404 0.00755688 -0)
(65.797 0.00276988 -0)
(66.0782 0.000549236 -0)
(66.0634 -0.00584241 -0)
(65.7493 -0.0153126 -0)
(65.6825 -0.0206368 -0)
(65.9896 -0.019027 -0)
(65.9848 -0.0150061 -0)
(65.7029 -0.0112274 -0)
(65.8807 -0.00663199 -0)
(65.9426 -0.00124467 -0)
(65.8024 0.00347255 -0)
(65.893 0.0067215 -0)
(65.8822 0.00853188 -0)
(65.8908 0.00907347 -0)
(65.9023 0.00856011 -0)
(65.9032 0.00732073 -0)
(66.9014 -0.00321687 -0)
(66.7929 -0.00935853 -0)
(66.5872 -0.0149396 -0)
(66.2982 -0.0198673 -0)
(65.9681 -0.0243251 -0)
(65.6481 -0.0285256 -0)
(65.3945 -0.0325606 -0)
(65.2579 -0.036489 -0)
(65.2694 -0.0405209 -0)
(65.4279 -0.0450907 -0)
(65.6917 -0.0507102 -0)
(65.9808 -0.0575011 -0)
(66.1948 -0.0645425 -0)
(66.2492 -0.069499 -0)
(66.1201 -0.0688748 -0)
(65.8728 -0.0589438 -0)
(65.6474 -0.0377755 -0)
(65.5896 -0.00824782 -0)
(65.752 0.0212391 -0)
(66.0267 0.0417841 -0)
(66.1903 0.0500401 -0)
(66.0821 0.0473012 -0)
(65.7915 0.0357301 -0)
(65.6257 0.0197047 -0)
(65.7875 0.00569009 -0)
(66.072 -0.00331997 -0)
(66.0568 -0.00885206 -0)
(65.743 -0.0136619 -0)
(65.6808 -0.0162566 -0)
(65.9932 -0.0134854 -0)
(65.9905 -0.0069666 -0)
(65.7088 -0.000217665 -0)
(65.8864 0.00557396 -0)
(65.9477 0.0102554 -0)
(65.8059 0.0132468 -0)
(65.8947 0.0142113 -0)
(65.8824 0.0135085 -0)
(65.8898 0.0118037 -0)
(65.9007 0.00976986 -0)
(65.9013 0.00803548 -0)
(66.8939 -0.00438311 -0)
(66.7858 -0.0129008 -0)
(66.5808 -0.0209181 -0)
(66.2925 -0.0282163 -0)
(65.9629 -0.0347259 -0)
(65.6435 -0.040356 -0)
(65.3905 -0.0449195 -0)
(65.2545 -0.0482407 -0)
(65.2665 -0.0503121 -0)
(65.4252 -0.0512837 -0)
(65.6888 -0.0514279 -0)
(65.9774 -0.0511679 -0)
(66.1916 -0.0508846 -0)
(66.248 -0.0503393 -0)
(66.1237 -0.0481688 -0)
(65.8845 -0.0419831 -0)
(65.6684 -0.0292718 -0)
(65.6164 -0.00949017 -0)
(65.7767 0.0134514 -0)
(66.0423 0.0319999 -0)
(66.1947 0.0405025 -0)
(66.077 0.0389686 -0)
(65.7794 0.0303426 -0)
(65.6103 0.0174584 -0)
(65.7739 0.00379518 -0)
(66.0636 -0.00625541 -0)
(66.0531 -0.00986002 -0)
(65.7419 -0.00885309 -0)
(65.6827 -0.00558504 -0)
(65.9989 0.000348809 -0)
(65.998 0.00823831 -0)
(65.7155 0.0153081 -0)
(65.8912 0.0197202 -0)
(65.9503 0.0213018 -0)
(65.8063 0.0204428 -0)
(65.8932 0.0177569 -0)
(65.8798 0.0142038 -0)
(65.8871 0.0108386 -0)
(65.8985 0.00850587 -0)
(65.9003 0.00773525 -0)
(66.8841 -0.00552084 -0)
(66.7763 -0.0163298 -0)
(66.5719 -0.026727 -0)
(66.2844 -0.0364945 -0)
(65.9559 -0.0453371 -0)
(65.6379 -0.0527197 -0)
(65.3867 -0.0579628 -0)
(65.2525 -0.0605354 -0)
(65.2664 -0.0603365 -0)
(65.4268 -0.0576149 -0)
(65.6918 -0.0526787 -0)
(65.9814 -0.0459206 -0)
(66.1957 -0.0381458 -0)
(66.2519 -0.0304867 -0)
(66.1284 -0.0236582 -0)
(65.8917 -0.0173476 -0)
(65.6799 -0.0103116 -0)
(65.6323 -0.00112843 -0)
(65.7935 0.0100738 -0)
(66.0538 0.0198922 -0)
(66.1972 0.0234126 -0)
(66.0719 0.0191331 -0)
(65.77 0.0103374 -0)
(65.5992 0.000994694 -0)
(65.7638 -0.00699446 -0)
(66.0584 -0.0116034 -0)
(66.0542 -0.00984118 -0)
(65.7473 -0.00228643 -0)
(65.69 0.00725597 -0)
(66.007 0.0163888 -0)
(66.0054 0.0239609 -0)
(65.7202 0.0283985 -0)
(65.8924 0.0287227 -0)
(65.9484 0.0255022 -0)
(65.8024 0.0202204 -0)
(65.8885 0.014468 -0)
(65.8755 0.00963728 -0)
(65.8841 0.00669378 -0)
(65.8976 0.00599867 -0)
(65.9014 0.00729915 -0)
(66.872 -0.00666899 -0)
(66.7646 -0.0197484 -0)
(66.5606 -0.0323923 -0)
(66.2739 -0.0444354 -0)
(65.9467 -0.0555202 -0)
(65.6309 -0.0647999 -0)
(65.3827 -0.0710543 -0)
(65.2521 -0.0731773 -0)
(65.2694 -0.070708 -0)
(65.4328 -0.0639937 -0)
(65.7005 -0.0538049 -0)
(65.992 -0.0409368 -0)
(66.207 -0.0264101 -0)
(66.2624 -0.0119046 -0)
(66.1369 0.000511768 -0)
(65.8979 0.00924807 -0)
(65.6846 0.0137247 -0)
(65.6368 0.0145352 -0)
(65.7978 0.0132037 -0)
(66.0557 0.0105467 -0)
(66.1939 0.00519903 -0)
(66.0639 -0.00400526 -0)
(65.7613 -0.0143033 -0)
(65.593 -0.0207758 -0)
(65.7613 -0.0214835 -0)
(66.0608 -0.0170969 -0)
(66.0624 -0.00750027 -0)
(65.759 0.0061283 -0)
(65.7014 0.0196616 -0)
(66.0156 0.0293469 -0)
(66.01 0.0337495 -0)
(65.7202 0.0328173 -0)
(65.8883 0.0274436 -0)
(65.9418 0.019599 -0)
(65.7953 0.0117317 -0)
(65.8826 0.00583227 -0)
(65.872 0.00294576 -0)
(65.8834 0.00307787 -0)
(65.8991 0.00534513 -0)
(65.9044 0.00827219 -0)
(66.8577 -0.00783969 -0)
(66.7506 -0.0232541 -0)
(66.5472 -0.0381315 -0)
(66.2612 -0.05221 -0)
(65.9356 -0.0650722 -0)
(65.6224 -0.0757893 -0)
(65.3783 -0.0828901 -0)
(65.2529 -0.0848308 -0)
(65.2756 -0.0806054 -0)
(65.4437 -0.0702437 -0)
(65.7149 -0.0548144 -0)
(66.0088 -0.0359213 -0)
(66.2247 -0.0153283 -0)
(66.2789 0.00484491 -0)
(66.1496 0.0219346 -0)
(65.9049 0.0332084 -0)
(65.6852 0.036626 -0)
(65.6318 0.0315747 -0)
(65.7895 0.0197519 -0)
(66.0458 0.00480116 -0)
(66.1827 -0.0103009 -0)
(66.0524 -0.024344 -0)
(65.7532 -0.0349671 -0)
(65.592 -0.0377786 -0)
(65.7675 -0.0309919 -0)
(66.0723 -0.0173531 -0)
(66.0774 -0.000439458 -0)
(65.7745 0.0165252 -0)
(65.7132 0.0294909 -0)
(66.0211 0.0351887 -0)
(66.0089 0.0331877 -0)
(65.7139 0.0255078 -0)
(65.8792 0.0152845 -0)
(65.9327 0.00581814 -0)
(65.7886 -0.000297573 -0)
(65.8797 -0.00194321 -0)
(65.8727 0.000347708 -0)
(65.8865 0.00480109 -0)
(65.9028 0.00913787 -0)
(65.9069 0.0113132 -0)
(66.8409 -0.00901649 -0)
(66.7343 -0.0268201 -0)
(66.5316 -0.0440183 -0)
(66.2469 -0.0600825 -0)
(65.9231 -0.0743273 -0)
(65.6131 -0.0857215 -0)
(65.3737 -0.0928264 -0)
(65.2544 -0.0941036 -0)
(65.284 -0.0883281 -0)
(65.4586 -0.0750808 -0)
(65.7348 -0.0551976 -0)
(66.0314 -0.030783 -0)
(66.2478 -0.0047128 -0)
(66.2997 0.0198796 -0)
(66.1652 0.039792 -0)
(65.9126 0.0519334 -0)
(65.683 0.0537735 -0)
(65.6199 0.0441328 -0)
(65.771 0.024586 -0)
(66.0256 0.000308827 -0)
(66.1648 -0.0221622 -0)
(66.0392 -0.0384995 -0)
(65.7479 -0.0463226 -0)
(65.597 -0.0432149 -0)
(65.7818 -0.0290343 -0)
(66.0913 -0.00842492 -0)
(66.0962 0.0120474 -0)
(65.7889 0.027258 -0)
(65.7201 0.0339496 -0)
(66.0193 0.0311694 -0)
(66.0004 0.0210912 -0)
(65.7023 0.00823062 -0)
(65.8686 -0.00259555 -0)
(65.9262 -0.00802327 -0)
(65.7875 -0.00705426 -0)
(65.8833 -0.00111625 -0)
(65.8788 0.00674875 -0)
(65.8922 0.0132202 -0)
(65.9057 0.0159979 -0)
(65.9058 0.0145978 -0)
(66.8218 -0.0101989 -0)
(66.7156 -0.0303851 -0)
(66.5139 -0.0499107 -0)
(66.2309 -0.0679569 -0)
(65.9099 -0.0834369 -0)
(65.6039 -0.0950012 -0)
(65.3699 -0.101213 -0)
(65.2574 -0.100796 -0)
(65.2946 -0.0928311 -0)
(65.4768 -0.0769266 -0)
(65.7592 -0.0536284 -0)
(66.0592 -0.0249615 -0)
(66.2754 0.00547193 -0)
(66.3234 0.0331998 -0)
(66.1816 0.0539603 -0)
(65.9189 0.0644746 -0)
(65.6774 0.0627458 -0)
(65.6026 0.048337 -0)
(65.7457 0.0234266 -0)
(65.999 -0.00588862 -0)
(66.1439 -0.0309673 -0)
(66.0282 -0.0451578 -0)
(65.7485 -0.0462322 -0)
(65.6093 -0.0348201 -0)
(65.8023 -0.0140645 -0)
(66.1134 0.00928881 -0)
(66.1131 0.0271878 -0)
(65.7964 0.034343 -0)
(65.7171 0.029832 -0)
(66.0082 0.0166457 -0)
(65.986 0.000561523 -0)
(65.6902 -0.0119307 -0)
(65.863 -0.0162744 -0)
(65.9282 -0.0116027 -0)
(65.7955 -0.000738794 -0)
(65.8935 0.0113584 -0)
(65.8871 0.0199173 -0)
(65.8958 0.0224132 -0)
(65.9041 0.0194968 -0)
(65.9009 0.0145034 -0)
(66.8003 -0.0114175 -0)
(66.6946 -0.0339734 -0)
(66.4941 -0.0557009 -0)
(66.2134 -0.0755275 -0)
(65.8961 -0.0920503 -0)
(65.5953 -0.10354 -0)
(65.3679 -0.108398 -0)
(65.2628 -0.105492 -0)
(65.3079 -0.0943649 -0)
(65.4978 -0.0752119 -0)
(65.7867 -0.0488917 -0)
(66.0905 -0.0173826 -0)
(66.3059 0.015561 -0)
(66.3482 0.0445694 -0)
(66.1965 0.064145 -0)
(65.9214 0.0705748 -0)
(65.6668 0.0629127 -0)
(65.5806 0.0428063 -0)
(65.7168 0.0143516 -0)
(65.9712 -0.015359 -0)
(66.1255 -0.0371335 -0)
(66.024 -0.0439451 -0)
(65.7582 -0.034835 -0)
(65.6291 -0.0142378 -0)
(65.8259 0.0105391 -0)
(66.1326 0.0308195 -0)
(66.1213 0.039118 -0)
(65.7916 0.0327639 -0)
(65.7024 0.015283 -0)
(65.99 -0.00542865 -0)
(65.9718 -0.0205598 -0)
(65.6855 -0.0240267 -0)
(65.869 -0.0150501 -0)
(65.9417 0.00164589 -0)
(65.8105 0.0183233 -0)
(65.9039 0.0281494 -0)
(65.8898 0.0284234 -0)
(65.8918 0.0214941 -0)
(65.8977 0.0132267 -0)
(65.897 0.00979949 -0)
(66.7764 -0.0126953 -0)
(66.6713 -0.0376492 -0)
(66.4724 -0.061435 -0)
(66.1946 -0.0826777 -0)
(65.8819 -0.0997776 -0)
(65.5875 -0.110827 -0)
(65.368 -0.114093 -0)
(65.2714 -0.108414 -0)
(65.3249 -0.0935631 -0)
(65.5223 -0.0704049 -0)
(65.817 -0.0407254 -0)
(66.1237 -0.00717253 -0)
(66.3373 0.0262706 -0)
(66.372 0.0539816 -0)
(66.2076 0.0698718 -0)
(65.9177 0.0699884 -0)
(65.6496 0.054631 -0)
(65.5541 0.0283123 -0)
(65.6875 -0.00183184 -0)
(65.9476 -0.0273743 -0)
(66.1153 -0.039967 -0)
(66.0305 -0.0347016 -0)
(65.7782 -0.01373 -0)
(65.6546 0.0142208 -0)
(65.8474 0.0380323 -0)
(66.142 0.0483822 -0)
(66.1151 0.0410187 -0)
(65.7726 0.0190217 -0)
(65.6789 -0.0078426 -0)
(65.9724 -0.0274134 -0)
(65.9674 -0.0309622 -0)
(65.6958 -0.0174777 -0)
(65.8886 0.00584209 -0)
(65.9616 0.027376 -0)
(65.822 0.0372907 -0)
(65.9036 0.032761 -0)
(65.8804 0.0190773 -0)
(65.8806 0.00577593 -0)
(65.8925 0.000679312 -0)
(65.9012 0.00594106 -0)
(66.75 -0.0140016 -0)
(66.6459 -0.0413778 -0)