/*--------------------------------*- C++ -*----------------------------------*\
  =========                 |
  \\      /  F ield         | OpenFOAM: The Open Source CFD Toolbox
   \\    /   O peration     | Website:  https://openfoam.org
    \\  /    A nd           | Version:  7
     \\/     M anipulation  |
\*---------------------------------------------------------------------------*/
FoamFile
{
    version     2.0;
    format      ascii;
    class       volScalarField;
    location    "0.1";
    object      Tair;
}
// * * * * * * * * * * * * * * * * * * * * * * * * * * * * * * * * * * * * * //

dimensions      [0 0 0 1 0 0 0];

internalField   nonuniform List<scalar> 
1600
(
349.166
347.5
345.836
344.175
342.52
340.871
339.226
337.586
335.947
334.308
332.668
331.023
329.376
327.725
326.074
324.423
322.775
321.13
319.486
317.844
316.199
314.552
312.903
311.254
309.607
307.962
306.318
304.672
303.024
301.376
299.729
298.085
296.44
294.792
293.138
291.487
289.849
288.213
286.559
284.906
349.166
347.499
345.834
344.173
342.519
340.87
339.226
337.586
335.948
334.31
332.669
331.024
329.376
327.724
326.072
324.422
322.774
321.13
319.488
317.845
316.199
314.551
312.902
311.253
309.607
307.963
306.319
304.672
303.023
301.375
299.729
298.085
296.44
294.798
293.154
291.498
289.842
288.208
286.568
284.912
349.166
347.498
345.833
344.173
342.518
340.87
339.226
337.587
335.95
334.311
332.67
331.025
329.375
327.723
326.071
324.421
322.774
321.131
319.489
317.845
316.199
314.551
312.901
311.253
309.608
307.964
306.319
304.672
303.023
301.376
299.731
298.083
296.432
294.786
293.151
291.508
289.844
288.197
286.56
284.912
349.165
347.497
345.832
344.172
342.518
340.869
339.227
337.588
335.95
334.312
332.671
331.025
329.375
327.723
326.071
324.421
322.775
321.131
319.489
317.846
316.199
314.55
312.901
311.254
309.609
307.965
306.319
304.671
303.022
301.377
299.734
298.09
296.439
294.784
293.143
291.509
289.859
288.202
286.557
284.911
349.165
347.497
345.832
344.171
342.517
340.869
339.227
337.589
335.951
334.313
332.671
331.025
329.375
327.722
326.07
324.42
322.775
321.132
319.49
317.846
316.199
314.55
312.9
311.254
309.61
307.966
306.319
304.67
303.022
301.375
299.73
298.086
296.443
294.792
293.136
291.496
289.858
288.207
286.558
284.912
349.165
347.496
345.831
344.171
342.517
340.869
339.227
337.589
335.952
334.314
332.672
331.025
329.374
327.721
326.069
324.42
322.775
321.133
319.491
317.847
316.199
314.549
312.9
311.255
309.611
307.967
306.32
304.671
303.025
301.38
299.731
298.081
296.44
294.803
293.146
291.494
289.853
288.206
286.559
284.912
349.165
347.496
345.83
344.17
342.516
340.869
339.228
337.59
335.953
334.315
332.673
331.026
329.374
327.721
326.069
324.42
322.775
321.134
319.492
317.848
316.199
314.549
312.9
311.255
309.612
307.967
306.318
304.669
303.024
301.382
299.736
298.081
296.431
294.795
293.151
291.5
289.853
288.206
286.558
284.912
349.165
347.496
345.83
344.169
342.516
340.869
339.228
337.59
335.954
334.316
332.673
331.026
329.374
327.72
326.068
324.42
322.776
321.135
319.493
317.848
316.199
314.549
312.901
311.257
309.614
307.969
306.319
304.669
303.021
301.378
299.737
298.09
296.438
294.79
293.147
291.501
289.854
288.207
286.558
284.912
349.165
347.495
345.829
344.169
342.515
340.868
339.228
337.591
335.955
334.317
332.674
331.026
329.374
327.72
326.068
324.42
322.776
321.136
319.494
317.849
316.199
314.548
312.901
311.257
309.615
307.969
306.321
304.673
303.027
301.378
299.73
298.087
296.444
294.792
293.146
291.499
289.854
288.207
286.559
284.912
349.164
347.495
345.828
344.168
342.514
340.868
339.228
337.591
335.956
334.318
332.675
331.027
329.374
327.72
326.068
324.42
322.777
321.137
319.496
317.85
316.2
314.549
312.901
311.258
309.615
307.967
306.318
304.671
303.029
301.383
299.73
298.082
296.443
294.794
293.148
291.5
289.853
288.208
286.559
284.912
349.164
347.494
345.828
344.167
342.514
340.867
339.228
337.592
335.956
334.319
332.676
331.028
329.375
327.72
326.067
324.42
322.778
321.138
319.497
317.85
316.2
314.549
312.903
311.261
309.618
307.97
306.317
304.669
303.027
301.385
299.734
298.084
296.441
294.793
293.149
291.501
289.853
288.207
286.559
284.912
349.164
347.494
345.827
344.166
342.513
340.867
339.227
337.592
335.957
334.32
332.677
331.028
329.375
327.72
326.067
324.42
322.779
321.139
319.498
317.851
316.2
314.549
312.903
311.261
309.62
307.972
306.321
304.671
303.027
301.383
299.735
298.087
296.443
294.791
293.149
291.502
289.853
288.207
286.559
284.912
349.164
347.493
345.826
344.165
342.512
340.866
339.227
337.592
335.958
334.321
332.678
331.029
329.376
327.72
326.067
324.42
322.779
321.141
319.5
317.853
316.201
314.549
312.902
311.261
309.619
307.972
306.321
304.673
303.029
301.382
299.732
298.088
296.444
294.79
293.148
291.501
289.853
288.207
286.559
284.912
349.164
347.493
345.826
344.165
342.511
340.866
339.227
337.592
335.958
334.322
332.679
331.031
329.377
327.721
326.068
324.421
322.78
321.142
319.502
317.854
316.202
314.55
312.904
311.262
309.619
307.97
306.319
304.673
303.031
301.382
299.73
298.087
296.445
294.791
293.147
291.501
289.853
288.207
286.559
284.912
349.164
347.492
345.825
344.164
342.511
340.865
339.226
337.592
335.959
334.323
332.681
331.032
329.378
327.722
326.068
324.421
322.781
321.143
319.503
317.856
316.203
314.551
312.905
311.264
309.622
307.971
306.317
304.672
303.032
301.384
299.729
298.086
296.445
294.791
293.147
291.501
289.853
288.207
286.559
284.912
349.163
347.492
345.824
344.163
342.51
340.864
339.226
337.592
335.959
334.324
332.682
331.034
329.379
327.723
326.069
324.422
322.782
321.145
319.505
317.857
316.203
314.55
312.905
311.266
309.624
307.972
306.317
304.671
303.032
301.385
299.73
298.085
296.445
294.791
293.148
291.501
289.853
288.207
286.559
284.912
349.163
347.492
345.824
344.163
342.509
340.864
339.226
337.592
335.96
334.325
332.684
331.035
329.381
327.724
326.07
324.423
322.783
321.146
319.507
317.859
316.204
314.549
312.903
311.265
309.625
307.974
306.317
304.67
303.031
301.386
299.73
298.085
296.445
294.791
293.148
291.501
289.853
288.207
286.559
284.912
349.163
347.492
345.824
344.162
342.509
340.863
339.225
337.592
335.96
334.326
332.685
331.037
329.383
327.726
326.071
324.424
322.784
321.147
319.508
317.861
316.205
314.55
312.902
311.263
309.624
307.974
306.317
304.669
303.03
301.385
299.73
298.085
296.444
294.791
293.148
291.501
289.853
288.207
286.559
284.912
349.163
347.491
345.823
344.162
342.508
340.863
339.225
337.592
335.961
334.327
332.687
331.039
329.385
327.728
326.073
324.425
322.784
321.148
319.509
317.862
316.207
314.551
312.902
311.262
309.622
307.973
306.317
304.668
303.029
301.384
299.73
298.085
296.444
294.791
293.147
291.501
289.853
288.207
286.559
284.912
349.163
347.491
345.823
344.162
342.508
340.863
339.225
337.593
335.961
334.328
332.688
331.041
329.387
327.73
326.075
324.426
322.785
321.148
319.509
317.863
316.208
314.552
312.902
311.261
309.621
307.972
306.317
304.668
303.029
301.384
299.729
298.085
296.444
294.791
293.148
291.501
289.853
288.207
286.559
284.912
349.163
347.491
345.823
344.162
342.508
340.863
339.225
337.593
335.962
334.329
332.689
331.043
329.389
327.732
326.077
324.427
322.785
321.148
319.509
317.862
316.208
314.553
312.903
311.262
309.621
307.972
306.317
304.668
303.029
301.384
299.73
298.085
296.445
294.791
293.148
291.501
289.853
288.207
286.559
284.912
349.163
347.491
345.823
344.162
342.508
340.863
339.226
337.593
335.963
334.33
332.691
331.045
329.391
327.734
326.079
324.429
322.786
321.148
319.508
317.861
316.207
314.552
312.903
311.262
309.621
307.972
306.317
304.669
303.029
301.385
299.73
298.085
296.445
294.791
293.148
291.501
289.853
288.207
286.559
284.912
349.163
347.492
345.824
344.162
342.509
340.864
339.226
337.594
335.963
334.331
332.692
331.046
329.393
327.736
326.081
324.43
322.787
321.148
319.507
317.86
316.206
314.551
312.902
311.261
309.621
307.972
306.317
304.669
303.03
301.385
299.73
298.085
296.445
294.791
293.148
291.501
289.853
288.207
286.558
284.912
349.163
347.492
345.824
344.163
342.51
340.865
339.227
337.595
335.965
334.332
332.693
331.047
329.394
327.738
326.082
324.432
322.788
321.148
319.507
317.859
316.205
314.55
312.901
311.261
309.621
307.972
306.317
304.669
303.03
301.385
299.73
298.085
296.445
294.791
293.147
291.5
289.852
288.206
286.558
284.911
349.164
347.492
345.825
344.164
342.511
340.866
339.229
337.597
335.966
334.333
332.695
331.049
329.396
327.739
326.083
324.432
322.788
321.148
319.507
317.859
316.204
314.549
312.901
311.26
309.621
307.972
306.318
304.669
303.03
301.385
299.73
298.085
296.444
294.79
293.146
291.5
289.852
288.206
286.558
284.911
349.164
347.493
345.825
344.165
342.512
340.867
339.23
337.598
335.968
334.335
332.696
331.05
329.396
327.739
326.083
324.432
322.788
321.148
319.507
317.858
316.204
314.549
312.901
311.261
309.621
307.973
306.318
304.669
303.03
301.384
299.729
298.084
296.443
294.789
293.146
291.5
289.852
288.206
286.558
284.911
349.164
347.493
345.826
344.166
342.513
340.869
339.232
337.6
335.97
334.336
332.697
331.051
329.397
327.739
326.083
324.432
322.788
321.148
319.506
317.858
316.204
314.549
312.901
311.261
309.622
307.973
306.318
304.669
303.029
301.383
299.728
298.083
296.443
294.789
293.146
291.5
289.852
288.206
286.558
284.911
349.164
347.494
345.827
344.167
342.515
340.871
339.234
337.602
335.972
334.338
332.699
331.051
329.397
327.739
326.082
324.431
322.787
321.147
319.506
317.858
316.204
314.55
312.902
311.263
309.622
307.973
306.318
304.669
303.028
301.383
299.727
298.083
296.442
294.789
293.146
291.5
289.852
288.206
286.557
284.911
349.164
347.495
345.829
344.169
342.517
340.873
339.237
337.605
335.974
334.34
332.7
331.052
329.397
327.738
326.081
324.429
322.785
321.145
319.505
317.858
316.205
314.551
312.904
311.264
309.623
307.973
306.317
304.668
303.028
301.382
299.727
298.083
296.443
294.789
293.146
291.5
289.852
288.205
286.557
284.91
349.165
347.495
345.83
344.171
342.519
340.876
339.239
337.607
335.976
334.342
332.701
331.053
329.397
327.737
326.079
324.428
322.783
321.144
319.504
317.858
316.206
314.552
312.905
311.264
309.623
307.973
306.317
304.667
303.027
301.382
299.727
298.083
296.443
294.79
293.146
291.499
289.851
288.205
286.556
284.91
349.165
347.496
345.831
344.173
342.522
340.879
339.242
337.61
335.979
334.344
332.703
331.053
329.396
327.736
326.078
324.426
322.782
321.143
319.504
317.859
316.207
314.553
312.905
311.264
309.623
307.972
306.315
304.666
303.027
301.382
299.728
298.084
296.443
294.789
293.145
291.498
289.85
288.204
286.556
284.91
349.165
347.497
345.833
344.175
342.524
340.881
339.245
337.613
335.981
334.346
332.703
331.053
329.396
327.735
326.076
324.424
322.781
321.143
319.504
317.86
316.208
314.554
312.905
311.264
309.621
307.971
306.314
304.666
303.027
301.383
299.729
298.084
296.443
294.788
293.144
291.498
289.85
288.204
286.556
284.91
349.166
347.498
345.835
344.177
342.527
340.884
339.248
337.616
335.983
334.347
332.704
331.053
329.394
327.733
326.074
324.423
322.78
321.143
319.505
317.861
316.209
314.554
312.905
311.262
309.62
307.969
306.314
304.666
303.028
301.384
299.729
298.083
296.442
294.787
293.144
291.498
289.851
288.205
286.556
284.909
349.166
347.499
345.837
344.18
342.53
340.887
339.251
337.618
335.985
334.348
332.704
331.052
329.393
327.731
326.073
324.422
322.78
321.144
319.507
317.862
316.209
314.554
312.903
311.26
309.618
307.968
306.315
304.668
303.03
301.384
299.728
298.082
296.44
294.786
293.144
291.499
289.851
288.205
286.555
284.908
349.166
347.501
345.839
344.182
342.533
340.891
339.254
337.621
335.987
334.349
332.704
331.051
329.391
327.73
326.071
324.421
322.78
321.145
319.508
317.863
316.209
314.552
312.901
311.258
309.617
307.969
306.316
304.669
303.03
301.383
299.726
298.08
296.439
294.788
293.146
291.499
289.85
288.203
286.554
284.908
349.167
347.502
345.841
344.185
342.536
340.894
339.257
337.623
335.988
334.349
332.703
331.049
329.389
327.728
326.07
324.422
322.782
321.147
319.51
317.864
316.208
314.55
312.898
311.256
309.617
307.97
306.318
304.67
303.029
301.38
299.724
298.079
296.441
294.79
293.146
291.498
289.848
288.202
286.556
284.909
349.167
347.503
345.843
344.188
342.539
340.897
339.26
337.625
335.99
334.349
332.702
331.047
329.387
327.726
326.07
324.423
322.784
321.149
319.511
317.864
316.206
314.547
312.896
311.256
309.618
307.973
306.32
304.669
303.026
301.378
299.723
298.082
296.444
294.79
293.143
291.494
289.847
288.203
286.557
284.912
349.168
347.505
345.845
344.19
342.542
340.9
339.262
337.627
335.99
334.349
332.7
331.045
329.385
327.725
326.07
324.424
322.787
321.152
319.512
317.862
316.203
314.544
312.895
311.257
309.622
307.976
306.319
304.665
303.022
301.377
299.727
298.086
296.444
294.786
293.139
291.495
289.854
288.206
286.543
284.903
349.168
347.506
345.847
344.193
342.545
340.903
339.265
337.628
335.99
334.347
332.698
331.042
329.383
327.725
326.072
324.427
322.79
321.154
319.512
317.859
316.199
314.542
312.896
311.261
309.626
307.975
306.314
304.66
303.021
301.382
299.733
298.084
296.435
294.782
293.149
291.502
289.843
288.203
286.554
284.899
349.168
347.507
345.849
344.195
342.548
340.906
339.267
337.629
335.989
334.345
332.695
331.04
329.381
327.725
326.074
324.431
322.793
321.155
319.509
317.855
316.196
314.542
312.901
311.267
309.626
307.969
306.307
304.662
303.031
301.387
299.723
298.076
296.444
294.789
293.14
291.5
289.85
288.209
286.565
284.905
)
;

boundaryField
{
    topWall
    {
        type            zeroGradient;
    }
    leftWall
    {
        type            fixedValue;
        value           uniform 350;
    }
    bottomWall
    {
        type            zeroGradient;
    }
    frontAndBack
    {
        type            empty;
    }
    region0_to_solid
    {
        type            compressible::turbulentTemperatureCoupledBaffleMixed;
        refValue        nonuniform List<scalar> 
40
(
284.003
284.006
284.005
284.005
284.005
284.005
284.005
284.005
284.005
284.005
284.006
284.006
284.006
284.006
284.006
284.006
284.006
284.006
284.006
284.005
284.005
284.005
284.005
284.005
284.005
284.004
284.004
284.004
284.004
284.003
284.003
284.003
284.002
284.002
284.001
284.002
284.001
284
283.999
283.999
)
;
        refGradient     uniform 0;
        valueFraction   nonuniform List<scalar> 
40
(
0.909091
0.909091
0.909091
0.909091
0.909091
0.909091
0.909091
0.909091
0.909091
0.909091
0.909091
0.909091
0.909091
0.909091
0.909091
0.909091
0.909091
0.909091
0.909091
0.909091
0.909091
0.909091
0.909091
0.909091
0.909091
0.909091
0.909091
0.909091
0.909091
0.909091
0.909091
0.909091
0.909091
0.909091
0.909091
0.909091
0.909091
0.909091
0.909091
0.909091
)
;
        value           nonuniform List<scalar> 
40
(
284.085
284.088
284.088
284.088
284.088
284.088
284.088
284.088
284.088
284.088
284.088
284.088
284.088
284.088
284.088
284.088
284.088
284.088
284.088
284.088
284.088
284.088
284.087
284.087
284.087
284.087
284.087
284.086
284.086
284.086
284.085
284.085
284.085
284.084
284.084
284.084
284.084
284.082
284.081
284.082
)
;
        Tnbr            Tsolid;
        thicknessLayers 0();
        kappaLayers     0();
        kappaMethod     lookup;
        kappa           kappaAir;
        alphaAni        Anialpha;
    }
}


// ************************************************************************* //
