/*--------------------------------*- C++ -*----------------------------------*\
  =========                 |
  \\      /  F ield         | OpenFOAM: The Open Source CFD Toolbox
   \\    /   O peration     | Website:  https://openfoam.org
    \\  /    A nd           | Version:  7
     \\/     M anipulation  |
\*---------------------------------------------------------------------------*/
FoamFile
{
    version     2.0;
    format      ascii;
    class       volScalarField;
    location    "2e-13";
    object      voltAext;
}
// * * * * * * * * * * * * * * * * * * * * * * * * * * * * * * * * * * * * * //

dimensions      [1 2 -3 0 0 -1 0];

internalField   nonuniform List<scalar> 
14934
(
883.296
845.83
812.447
782.198
754.454
728.779
704.849
682.423
661.31
641.358
622.444
604.465
587.336
570.982
555.342
540.361
525.99
512.189
498.919
486.148
473.844
461.982
450.537
439.486
428.809
418.487
408.503
398.84
389.485
380.423
371.642
363.129
354.873
346.864
339.092
331.547
324.221
317.106
310.193
303.476
296.947
290.599
284.427
278.423
272.583
266.901
261.371
255.988
250.748
245.646
240.677
235.838
231.124
226.532
222.057
217.696
213.445
209.302
205.262
201.323
197.482
193.736
190.082
186.518
183.04
179.647
176.336
173.104
169.949
166.87
163.864
160.928
158.062
155.263
152.529
149.858
147.25
144.701
142.21
139.777
137.399
135.074
132.802
130.581
128.409
126.286
124.21
122.179
120.194
118.251
116.351
114.492
112.673
110.894
109.152
107.448
105.78
888.087
852.101
819.592
789.892
762.51
737.078
713.315
691.001
669.961
650.054
631.164
613.192
596.057
579.687
564.022
549.009
534.602
520.758
507.443
494.622
482.267
470.35
458.848
447.739
437.002
426.618
416.572
406.846
397.427
388.3
379.453
370.874
362.552
354.476
346.637
339.025
331.632
324.45
317.47
310.686
304.089
297.675
291.435
285.365
279.458
273.71
268.114
262.665
257.36
252.193
247.16
242.256
237.478
232.822
228.284
223.86
219.547
215.342
211.241
207.241
203.34
199.534
195.82
192.197
188.661
185.209
181.841
178.552
175.341
172.206
169.144
166.154
163.233
160.38
157.593
154.87
152.209
149.608
147.067
144.582
142.154
139.78
137.459
135.189
132.97
130.799
128.676
126.599
124.567
122.579
120.634
118.731
116.868
115.045
113.26
111.514
109.803
888.506
854.895
823.927
795.269
768.617
743.709
720.331
698.303
677.479
657.734
638.965
621.083
604.012
587.687
572.051
557.053
542.649
528.801
515.472
502.631
490.25
478.303
466.767
455.619
444.841
434.413
424.32
414.546
405.076
395.897
386.996
378.362
369.984
361.852
353.955
346.285
338.833
331.591
324.552
317.707
311.05
304.575
298.275
292.143
286.176
280.366
274.709
269.2
263.834
258.606
253.512
248.548
243.711
238.995
234.397
229.914
225.542
221.278
217.119
213.061
209.102
205.239
201.469
197.789
194.197
190.69
187.266
183.922
180.657
177.468
174.353
171.31
168.337
165.432
162.593
159.819
157.107
154.457
151.866
149.332
146.855
144.433
142.064
139.747
137.481
135.264
133.095
130.973
128.897
126.864
124.875
122.929
121.023
119.158
117.331
115.543
113.791
886.006
855.047
825.952
798.641
772.978
748.811
725.996
704.403
683.918
664.439
645.879
628.163
611.222
594.999
579.441
564.502
550.142
536.323
523.012
510.181
497.8
485.846
474.297
463.13
452.329
441.874
431.75
421.941
412.434
403.215
394.273
385.595
377.172
368.992
361.047
353.327
345.824
338.531
331.439
324.54
317.83
311.3
304.945
298.759
292.735
286.87
281.157
275.591
270.169
264.885
259.735
254.715
249.821
245.049
240.395
235.856
231.429
227.11
222.895
218.782
214.769
210.851
207.027
203.293
199.647
196.087
192.611
189.215
185.898
182.657
179.49
176.396
173.373
170.418
167.529
164.706
161.945
159.246
156.607
154.026
151.502
149.033
146.618
144.255
141.944
139.682
137.468
135.302
133.182
131.107
129.075
127.086
125.138
123.232
121.364
119.535
117.744
881.727
853.336
826.191
800.366
775.843
752.56
730.439
709.396
689.349
670.224
651.95
634.466
617.715
601.645
586.211
571.373
557.093
543.337
530.075
517.279
504.923
492.985
481.443
470.277
459.47
449.004
438.864
429.035
419.504
410.258
401.285
392.574
384.115
375.898
367.913
360.152
352.606
345.269
338.131
331.187
324.429
317.851
311.447
305.211
299.137
293.221
287.457
281.84
276.366
271.03
265.828
260.756
255.809
250.985
246.279
241.688
237.208
232.836
228.57
224.405
220.339
216.37
212.494
208.709
205.013
201.402
197.875
194.429
191.061
187.771
184.555
181.413
178.34
175.337
172.401
169.53
166.722
163.976
161.291
158.664
156.094
153.58
151.12
148.712
146.357
144.051
141.794
139.585
137.423
135.305
133.232
131.202
129.213
127.266
125.359
123.49
121.659
876.443
850.378
825.111
800.789
777.467
755.148
733.804
713.391
693.86
675.157
657.232
640.037
623.525
607.655
592.387
577.686
563.52
549.857
536.671
523.936
511.629
499.728
488.213
477.066
466.27
455.808
445.667
435.831
426.288
417.027
408.035
399.301
390.816
382.571
374.555
366.761
359.181
351.806
344.631
337.647
330.848
324.227
317.78
311.5
305.382
299.42
293.61
287.947
282.425
277.042
271.792
266.671
261.676
256.803
252.048
247.408
242.879
238.458
234.142
229.928
225.814
221.796
217.871
214.037
210.292
206.633
203.058
199.563
196.149
192.811
189.548
186.358
183.239
180.189
177.207
174.29
171.437
168.646
165.915
163.244
160.63
158.072
155.568
153.118
150.719
148.371
146.073
143.822
141.618
139.46
137.346
135.275
133.247
131.261
129.314
127.407
125.538
870.643
846.621
823.087
800.212
778.089
756.762
736.238
716.506
697.541
679.313
661.785
644.924
628.694
613.062
597.996
583.465
569.442
555.901
542.816
530.166
517.928
506.084
494.615
483.504
472.735
462.293
452.164
442.334
432.792
423.526
414.526
405.78
397.279
389.014
380.976
373.157
365.55
358.146
350.938
343.921
337.088
330.431
323.947
317.628
311.47
305.468
299.616
293.911
288.347
282.92
277.626
272.461
267.421
262.502
257.702
253.016
248.441
243.975
239.613
235.353
231.192
227.128
223.157
219.277
215.486
211.78
208.159
204.619
201.159
197.775
194.467
191.232
188.069
184.974
181.947
178.986
176.089
173.255
170.481
167.767
165.11
162.509
159.964
157.472
155.032
152.643
150.303
148.012
145.768
143.57
141.417
139.307
137.24
135.215
133.23
131.286
129.379
864.622
842.374
820.405
798.882
777.916
757.571
737.88
718.853
700.487
682.767
665.672
649.18
633.266
617.904
603.069
588.737
574.884
561.488
548.527
535.983
523.835
512.066
500.66
489.601
478.873
468.464
458.361
448.55
439.02
429.761
420.762
412.013
403.505
395.23
387.178
379.342
371.714
364.288
357.056
350.013
343.15
336.464
329.947
323.595
317.403
311.365
305.477
299.733
294.131
288.664
283.331
278.125
273.044
268.084
263.242
258.514
253.896
249.386
244.981
240.678
236.474
232.366
228.351
224.428
220.593
216.844
213.179
209.596
206.092
202.665
199.314
196.036
192.829
189.692
186.622
183.619
180.68
177.803
174.988
172.232
169.534
166.892
164.306
161.774
159.293
156.864
154.485
152.155
149.872
147.635
145.443
143.296
141.191
139.129
137.107
135.126
133.183
858.56
837.849
817.276
796.997
777.121
757.726
738.857
720.541
702.787
685.595
668.956
652.858
637.285
622.218
607.639
593.529
579.868
566.639
553.823
541.402
529.362
517.685
506.358
495.365
484.694
474.331
464.265
454.484
444.978
435.736
426.748
418.006
409.5
401.222
393.164
385.318
377.678
370.236
362.987
355.922
349.037
342.326
335.783
329.403
323.181
317.113
311.192
305.416
299.779
294.277
288.907
283.665
278.547
273.549
268.668
263.9
259.243
254.694
250.249
245.905
241.66
237.511
233.455
229.491
225.614
221.824
218.118
214.493
210.948
207.48
204.087
200.768
197.52
194.342
191.231
188.187
185.207
182.29
179.435
176.639
173.901
171.22
168.595
166.023
163.504
161.036
158.619
156.25
153.93
151.655
149.426
147.242
145.101
143.002
140.944
138.927
136.948
852.562
833.185
813.854
794.706
775.847
757.355
739.282
721.666
704.525
687.869
671.7
656.012
640.798
626.045
611.741
597.871
584.422
571.377
558.722
546.443
534.525
522.955
511.721
500.808
490.205
479.901
469.884
460.144
450.671
441.456
432.489
423.762
415.266
406.994
398.937
391.09
383.444
375.993
368.731
361.652
354.75
348.02
341.456
335.053
328.807
322.712
316.764
310.958
305.291
299.758
294.356
289.081
283.929
278.896
273.98
269.176
264.483
259.897
255.414
251.033
246.75
242.562
238.468
234.465
230.55
226.72
222.975
219.311
215.726
212.219
208.787
205.428
202.141
198.924
195.774
192.691
189.672
186.717
183.822
180.988
178.212
175.493
172.829
170.22
167.663
165.158
162.704
160.298
157.941
155.63
153.365
151.145
148.968
146.834
144.741
142.688
140.676
846.686
828.476
810.249
792.127
774.206
756.563
739.252
722.315
705.778
689.657
673.961
658.693
643.849
629.423
615.408
601.794
588.57
575.724
563.246
551.122
539.341
527.891
516.761
505.94
495.418
485.183
475.226
465.537
456.108
446.928
437.991
429.287
420.809
412.55
404.502
396.659
389.014
381.56
374.293
367.205
360.292
353.548
346.968
340.547
334.281
328.164
322.192
316.362
310.669
305.109
299.678
294.374
289.191
284.127
279.179
274.343
269.616
264.996
260.479
256.062
251.744
247.521
243.391
239.351
235.399
231.533
227.75
224.049
220.427
216.883
213.413
210.017
206.693
203.438
200.251
197.13
194.074
191.081
188.15
185.279
182.466
179.71
177.01
174.364
171.771
169.23
166.74
164.298
161.905
159.559
157.259
155.004
152.793
150.624
148.497
146.411
144.364
840.968
823.782
806.54
789.347
772.289
755.437
738.848
722.564
706.614
691.02
675.796
660.949
646.481
632.391
618.675
605.327
592.34
579.705
567.414
555.457
543.825
532.507
521.493
510.775
500.343
490.187
480.3
470.671
461.293
452.158
443.258
434.586
426.133
417.895
409.862
402.03
394.392
386.942
379.675
372.584
365.665
358.912
352.321
345.887
339.605
333.471
327.48
321.629
315.914
310.33
304.875
299.544
294.335
289.243
284.266
279.4
274.643
269.991
265.442
260.994
256.643
252.386
248.223
244.149
240.163
236.262
232.445
228.708
225.051
221.471
217.966
214.535
211.174
207.884
204.661
201.505
198.413
195.385
192.418
189.511
186.662
183.871
181.136
178.455
175.827
173.251
170.726
168.25
165.823
163.443
161.109
158.82
156.574
154.372
152.212
150.093
148.014
835.423
819.144
802.783
786.431
770.165
754.05
738.14
722.477
707.094
692.014
677.254
662.826
648.735
634.984
621.573
608.499
595.757
583.343
571.249
559.469
547.994
536.817
525.93
515.324
504.991
494.924
485.114
475.554
466.236
457.154
448.298
439.664
431.245
423.033
415.022
407.207
399.582
392.142
384.879
377.791
370.871
364.114
357.517
351.074
344.781
338.634
332.628
326.761
321.027
315.424
309.947
304.594
299.36
294.244
289.241
284.348
279.564
274.884
270.306
265.828
261.447
257.16
252.964
248.859
244.841
240.908
237.058
233.288
229.598
225.985
222.446
218.981
215.587
212.262
209.006
205.815
202.689
199.627
196.626
193.684
190.802
187.977
185.207
182.493
179.831
177.222
174.663
172.154
169.693
167.28
164.913
162.591
160.313
158.079
155.886
153.735
151.624
845.35
830.059
814.587
799.018
783.429
767.889
752.458
737.185
722.112
707.271
692.688
678.381
664.365
650.649
637.238
624.134
611.338
598.848
586.66
574.771
563.175
551.866
540.838
530.085
519.599
509.374
499.403
489.679
480.195
470.944
461.921
453.118
444.529
436.148
427.969
419.987
412.195
404.589
397.162
389.911
382.829
375.913
369.158
362.559
356.111
349.811
343.655
337.639
331.758
326.01
320.39
314.896
309.523
304.269
299.131
294.106
289.189
284.38
279.675
275.071
270.565
266.156
261.841
257.617
253.482
249.434
245.471
241.59
237.79
234.068
230.423
226.853
223.355
219.929
216.572
213.283
210.061
206.902
203.807
200.773
197.799
194.884
192.026
189.225
186.477
183.783
181.141
178.55
176.009
173.516
171.071
168.672
166.318
164.009
161.743
159.52
157.337
155.195
839.446
824.875
810.127
795.272
780.378
765.505
750.707
736.03
721.514
707.19
693.085
679.218
665.605
652.258
639.184
626.387
613.871
601.635
589.679
577.999
566.594
555.457
544.585
533.972
523.614
513.503
503.635
494.004
484.602
475.426
466.468
457.723
449.185
440.849
432.709
424.76
416.997
409.415
402.008
394.772
387.703
380.795
374.045
367.448
361.001
354.698
348.537
342.513
336.623
330.864
325.231
319.723
314.334
309.063
303.906
298.861
293.924
289.092
284.364
279.736
275.206
270.772
266.431
262.18
258.018
253.942
249.951
246.042
242.212
238.461
234.787
231.187
227.659
224.202
220.815
217.495
214.242
211.052
207.926
204.861
201.856
198.909
196.02
193.187
190.408
187.683
185.01
182.388
179.815
177.292
174.816
172.386
170.002
167.662
165.365
163.111
160.899
158.727
833.792
819.869
805.773
791.566
777.305
763.046
748.834
734.715
720.723
706.891
693.243
679.8
666.58
653.594
640.852
628.361
616.124
604.143
592.421
580.954
569.743
558.783
548.072
537.606
527.38
517.39
507.631
498.098
488.785
479.688
470.802
462.121
453.64
445.354
437.258
429.348
421.619
414.065
406.683
399.467
392.414
385.52
378.779
372.189
365.745
359.444
353.281
347.254
341.358
335.591
329.949
324.429
319.028
313.742
308.57
303.507
298.552
293.701
288.953
284.304
279.752
275.295
270.93
266.655
262.468
258.367
254.349
250.413
246.557
242.778
239.076
235.448
231.892
228.406
224.99
221.641
218.358
215.139
211.983
208.888
205.854
202.877
199.958
197.095
194.286
191.531
188.828
186.176
183.573
181.02
178.514
176.054
173.64
171.271
168.945
166.662
164.42
162.219
828.374
815.035
801.53
787.913
774.233
760.538
746.871
733.272
719.774
706.406
693.195
680.161
667.32
654.686
642.27
630.079
618.12
606.394
594.906
583.655
572.64
561.861
551.315
540.999
530.911
521.046
511.401
501.971
492.752
483.74
474.93
466.318
457.899
449.669
441.622
433.756
426.064
418.544
411.19
403.999
396.967
390.09
383.363
376.783
370.347
364.05
357.89
351.863
345.965
340.193
334.545
329.016
323.605
318.309
313.123
308.046
303.076
298.209
293.442
288.775
284.203
279.725
275.339
271.042
266.832
262.707
258.665
254.705
250.824
247.02
243.291
239.636
236.054
232.541
229.098
225.721
222.41
219.163
215.979
212.856
209.793
206.788
203.84
200.948
198.111
195.327
192.595
189.914
187.282
184.7
182.165
179.677
177.234
174.836
172.482
170.17
167.9
165.671
823.174
810.366
797.401
784.322
771.175
758.001
744.84
731.727
718.693
705.766
692.971
680.328
667.853
655.561
643.463
631.567
619.881
608.409
597.154
586.118
575.302
564.705
554.327
544.165
534.218
524.483
514.955
505.633
496.513
487.59
478.861
470.323
461.97
453.799
445.806
437.988
430.339
422.856
415.535
408.373
401.366
394.509
387.8
381.234
374.809
368.521
362.366
356.342
350.445
344.672
339.02
333.487
328.069
322.763
317.568
312.48
307.496
302.615
297.833
293.149
288.56
284.064
279.658
275.341
271.111
266.965
262.901
258.918
255.013
251.185
247.432
243.753
240.145
236.608
233.138
229.736
226.398
223.125
219.914
216.764
213.674
210.641
207.666
204.747
201.882
199.07
196.31
193.602
190.943
188.333
185.77
183.254
180.784
178.358
175.976
173.637
171.34
169.083
818.178
805.857
793.384
780.8
768.144
755.453
742.761
730.103
717.505
704.995
692.595
680.326
668.203
656.242
644.452
632.846
621.428
610.206
599.183
588.362
577.744
567.331
557.123
547.117
537.314
527.71
518.305
509.094
500.076
491.246
482.602
474.141
465.859
457.752
449.817
442.05
434.447
427.006
419.722
412.592
405.613
398.781
392.093
385.545
379.134
372.858
366.712
360.694
354.801
349.03
343.378
337.842
332.42
327.108
321.905
316.808
311.814
306.921
302.127
297.429
292.824
288.312
283.889
279.555
275.305
271.14
267.056
263.052
259.126
255.276
251.501
247.798
244.167
240.605
237.112
233.685
230.323
227.024
223.788
220.612
217.496
214.438
211.437
208.491
205.6
202.762
199.975
197.24
194.555
191.918
189.328
186.786
184.289
181.837
179.428
177.062
174.738
172.455
813.374
801.498
789.478
777.35
765.148
752.904
740.651
728.417
716.23
704.114
692.09
680.177
668.392
656.75
645.26
633.935
622.78
611.804
601.009
590.402
579.982
569.753
559.715
549.867
540.209
530.741
521.459
512.363
503.449
494.716
486.161
477.781
469.572
461.532
453.658
445.947
438.395
430.998
423.755
416.661
409.714
402.909
396.245
389.718
383.325
377.064
370.93
364.921
359.035
353.268
347.619
342.083
336.66
331.345
326.137
321.033
316.031
311.129
306.324
301.614
296.997
292.471
288.033
283.682
279.416
275.233
271.131
267.107
263.162
259.292
255.496
251.772
248.119
244.535
241.019
237.569
234.184
230.861
227.601
224.401
221.261
218.178
215.152
212.181
209.265
206.401
203.589
200.829
198.118
195.455
192.84
190.272
187.749
185.271
182.837
180.445
178.096
175.787
808.748
797.283
785.682
773.975
762.192
750.365
738.52
726.685
714.884
703.14
691.472
679.901
668.44
657.104
645.905
634.852
623.955
613.219
602.65
592.253
582.03
571.984
562.116
552.427
542.916
533.584
524.428
515.448
506.642
498.009
489.545
481.248
473.117
465.148
457.338
449.685
442.186
434.838
427.638
420.583
413.671
406.898
400.261
393.758
387.386
381.141
375.022
369.026
363.149
357.39
351.745
346.213
340.79
335.475
330.265
325.157
320.149
315.24
310.426
305.707
301.079
296.54
292.09
287.725
283.444
279.245
275.126
271.086
267.122
263.234
259.419
255.675
252.002
248.397
244.86
241.388
237.981
234.637
231.354
228.131
224.967
221.861
218.811
215.817
212.876
209.989
207.153
204.368
201.632
198.945
196.305
193.712
191.165
188.662
186.203
183.786
181.412
179.079
804.289
793.205
781.991
770.674
759.283
747.843
736.38
724.918
713.481
702.088
690.76
679.513
668.362
657.321
646.402
635.615
624.967
614.467
604.119
593.93
583.902
574.037
564.339
554.808
545.445
536.249
527.221
518.36
509.663
501.131
492.761
484.551
476.499
468.603
460.861
453.269
445.826
438.53
431.376
424.363
417.489
410.749
404.143
397.666
391.318
385.094
378.992
373.011
367.146
361.397
355.76
350.233
344.814
339.5
334.289
329.18
324.169
319.254
314.435
309.707
305.071
300.522
296.061
291.684
287.39
283.177
279.044
274.988
271.008
267.102
263.27
259.508
255.816
252.192
248.635
245.144
241.716
238.35
235.046
231.802
228.616
225.488
222.416
219.398
216.435
213.524
210.665
207.857
205.098
202.387
199.724
197.107
194.536
192.009
189.526
187.086
184.687
182.33
799.988
789.257
778.402
767.449
756.422
745.343
734.238
723.128
712.033
700.973
689.967
679.029
668.175
657.418
646.768
636.237
625.832
615.562
605.431
595.445
585.609
575.924
566.395
557.022
547.806
538.748
529.848
521.106
512.521
504.092
495.817
487.696
479.726
471.905
464.232
456.705
449.321
442.078
434.973
428.005
421.171
414.468
407.895
401.448
395.125
388.924
382.843
376.878
371.029
365.292
359.665
354.145
348.732
343.422
338.213
333.104
328.092
323.175
318.351
313.618
308.974
304.418
299.947
295.56
291.255
287.03
282.883
278.814
274.819
270.898
267.05
263.271
259.562
255.921
252.345
248.835
245.388
242.003
238.679
235.414
232.208
229.058
225.965
222.926
219.941
217.009
214.127
211.297
208.515
205.782
203.096
200.456
197.862
195.313
192.807
190.343
187.922
185.541
795.834
785.432
774.913
764.298
753.611
742.871
732.102
721.321
710.55
699.805
689.104
678.461
667.891
657.406
647.016
636.733
626.564
616.517
606.597
596.812
587.164
577.657
568.294
559.078
550.009
541.088
532.317
523.695
515.222
506.897
498.72
490.689
482.802
475.06
467.458
459.997
452.674
445.487
438.434
431.513
424.722
418.058
411.52
405.104
398.81
392.635
386.576
380.631
374.798
369.076
363.461
357.952
352.547
347.243
342.038
336.931
331.92
327.002
322.175
317.439
312.79
308.228
303.749
299.354
295.039
290.804
286.646
282.564
278.557
274.622
270.759
266.966
263.241
259.583
255.991
252.463
248.998
245.594
242.252
238.968
235.742
232.573
229.459
226.4
223.395
220.441
217.539
214.687
211.884
209.129
206.422
203.76
201.144
198.573
196.045
193.559
191.115
188.712
791.819
781.724
771.518
761.221
750.852
740.43
729.975
719.506
709.04
698.594
688.183
677.821
667.522
657.297
647.158
637.114
627.174
617.344
607.631
598.04
588.577
579.245
570.047
560.986
552.063
543.28
534.637
526.135
517.775
509.556
501.476
493.537
485.736
478.072
470.545
463.152
455.891
448.763
441.763
434.891
428.145
421.522
415.021
408.64
402.377
396.229
390.194
384.272
378.458
372.752
367.152
361.655
356.26
350.964
345.765
340.663
335.654
330.737
325.91
321.172
316.52
311.953
307.469
303.067
298.745
294.5
290.333
286.24
282.221
278.275
274.398
270.591
266.852
263.179
259.572
256.028
252.546
249.126
245.765
242.464
239.22
236.032
232.899
229.821
226.796
223.823
220.901
218.028
215.205
212.43
209.701
207.019
204.382
201.789
199.24
196.733
194.268
191.843
797.618
787.935
778.128
768.216
758.215
748.145
738.022
727.864
717.688
707.511
697.347
687.212
677.118
667.078
657.104
647.206
637.392
627.672
618.053
608.541
599.142
589.86
580.699
571.664
562.756
553.977
545.33
536.816
528.435
520.187
512.074
504.093
496.246
488.532
480.949
473.496
466.173
458.978
451.909
444.965
438.144
431.444
424.865
418.404
412.058
405.828
399.709
393.702
387.803
382.011
376.323
370.739
365.257
359.873
354.587
349.397
344.3
339.296
334.382
329.557
324.818
320.165
315.596
311.108
306.7
302.372
298.12
293.945
289.843
285.814
281.856
277.969
274.149
270.397
266.711
263.089
259.53
256.033
252.597
249.22
245.902
242.641
239.436
236.285
233.189
230.145
227.153
224.212
221.321
218.478
215.683
212.935
210.232
207.575
204.962
202.392
199.865
197.379
194.934
793.593
784.174
774.638
765.001
755.279
745.49
735.648
725.77
715.872
705.968
696.072
686.199
676.361
666.569
656.835
647.168
637.577
628.071
618.656
609.339
600.126
591.021
582.029
573.153
564.396
555.76
547.248
538.861
530.6
522.465
514.458
506.577
498.824
491.196
483.695
476.319
469.067
461.937
454.93
448.043
441.275
434.624
428.09
421.67
415.362
409.166
403.079
397.1
391.227
385.458
379.791
374.226
368.759
363.389
358.115
352.934
347.846
342.848
337.939
333.116
328.38
323.727
319.156
314.666
310.255
305.922
301.665
297.482
293.373
289.335
285.368
281.47
277.64
273.876
270.178
266.543
262.971
259.46
256.009
252.617
249.283
246.006
242.785
239.618
236.504
233.443
230.433
227.474
224.564
221.703
218.889
216.122
213.401
210.724
208.092
205.502
202.955
200.45
197.985
789.701
780.53
771.248
761.871
752.412
742.887
733.311
723.697
714.061
704.416
694.776
685.152
675.557
666.003
656.498
647.054
637.677
628.377
619.16
610.033
601.001
592.069
583.242
574.523
565.915
557.42
549.042
540.781
532.639
524.617
516.715
508.934
501.274
493.735
486.316
479.017
471.837
464.775
457.83
451.002
444.288
437.688
431.2
424.823
418.555
412.395
406.342
400.393
394.547
388.803
383.159
377.613
372.164
366.81
361.549
356.38
351.301
346.311
341.408
336.591
331.857
327.206
322.636
318.145
313.732
309.396
305.134
300.946
296.831
292.786
288.811
284.905
281.065
277.291
273.581
269.934
266.35
262.826
259.362
255.956
252.608
249.316
246.079
242.896
239.767
236.689
233.663
230.686
227.759
224.88
222.049
219.264
216.524
213.829
211.178
208.57
206.004
203.48
200.996
794.752
785.932
776.996
767.954
758.822
749.611
740.336
731.01
721.647
712.259
702.86
693.462
684.076
674.714
665.386
656.102
646.871
637.701
628.6
619.575
610.632
601.777
593.014
584.347
575.781
567.319
558.964
550.717
542.582
534.558
526.648
518.852
511.171
503.604
496.154
488.818
481.596
474.489
467.496
460.615
453.846
447.188
440.639
434.199
427.867
421.64
415.518
409.499
403.582
397.766
392.048
386.428
380.903
375.474
370.137
364.891
359.735
354.668
349.687
344.792
339.981
335.252
330.604
326.036
321.546
317.132
312.794
308.53
304.338
300.218
296.168
292.186
288.272
284.424
280.64
276.921
273.264
269.668
266.132
262.656
259.237
255.876
252.57
249.319
246.122
242.977
239.884
236.842
233.85
230.906
228.011
225.162
222.36
219.603
216.891
214.222
211.596
209.012
206.469
203.967
790.885
782.281
773.566
764.752
755.851
746.874
737.836
728.747
719.62
710.468
701.303
692.135
682.976
673.836
664.725
655.653
646.627
637.656
628.748
619.908
611.144
602.46
593.861
585.352
576.936
568.618
560.399
552.282
544.27
536.363
528.564
520.873
513.292
505.819
498.457
491.204
484.062
477.028
470.104
463.288
456.579
449.978
443.482
437.091
430.804
424.62
418.537
412.555
406.671
400.885
395.196
389.601
384.1
378.691
373.372
368.143
363.002
357.948
352.978
348.092
343.289
338.566
333.923
329.358
324.87
320.457
316.119
311.853
307.659
303.535
299.48
295.493
291.573
287.717
283.926
280.198
276.532
272.926
269.38
265.892
262.462
259.088
255.77
252.505
249.294
246.136
243.028
239.971
236.964
234.005
231.094
228.229
225.411
222.637
219.908
217.222
214.579
211.978
209.418
206.898
787.141
778.741
770.237
761.637
752.955
744.2
735.385
726.521
717.62
708.692
699.748
690.8
681.857
672.929
664.026
655.157
646.328
637.549
628.827
620.166
611.575
603.057
594.619
586.263
577.994
569.816
561.732
553.743
545.852
538.062
530.373
522.786
515.303
507.924
500.65
493.481
486.417
479.458
472.603
465.853
459.206
452.662
446.22
439.88
433.64
427.499
421.457
415.512
409.663
403.909
398.248
392.68
387.204
381.817
376.519
371.308
366.183
361.142
356.185
351.31
346.516
341.801
337.164
332.604
328.119
323.708
319.371
315.105
310.91
306.783
302.725
298.734
294.808
290.947
287.149
283.414
279.739
276.125
272.569
269.071
265.63
262.245
258.915
255.638
252.415
249.243
246.122
243.051
240.03
237.056
234.13
231.251
228.417
225.628
222.882
220.18
217.521
214.903
212.326
209.79
783.512
775.306
767.001
758.606
750.131
741.587
732.984
724.334
715.645
706.93
698.198
689.459
680.723
671.998
663.294
654.619
645.981
637.386
628.842
620.356
611.932
603.576
595.293
587.087
578.962
570.922
562.969
555.106
547.335
539.659
532.078
524.595
517.21
509.925
502.739
495.653
488.668
481.783
474.999
468.314
461.73
455.244
448.857
442.568
436.375
430.279
424.279
418.372
412.559
406.838
401.208
395.669
390.218
384.854
379.578
374.386
369.278
364.254
359.31
354.447
349.663
344.957
340.328
335.774
331.294
326.886
322.551
318.286
314.091
309.964
305.903
301.909
297.979
294.113
290.31
286.568
282.886
279.264
275.7
272.193
268.743
265.347
262.006
258.719
255.483
252.3
249.166
246.082
243.047
240.06
237.12
234.226
231.378
228.574
225.813
223.096
220.421
217.787
215.195
212.642
779.992
771.971
763.855
755.654
747.376
739.032
730.631
722.183
713.698
705.186
696.655
688.116
679.577
671.046
662.533
654.045
645.589
637.172
628.801
620.482
612.221
604.022
595.89
587.83
579.845
571.939
564.115
556.376
548.723
541.159
533.686
526.306
519.018
511.825
504.727
497.725
490.818
484.008
477.294
470.676
464.154
457.727
451.396
445.158
439.015
432.964
427.006
421.14
415.363
409.677
404.079
398.568
393.144
387.806
382.551
377.38
372.291
367.283
362.355
357.505
352.733
348.037
343.416
338.869
334.395
329.993
325.661
321.398
317.204
313.077
309.016
305.019
301.087
297.217
293.409
289.662
285.974
282.345
278.774
275.259
271.8
268.395
265.045
261.747
258.501
255.305
252.16
249.065
246.017
243.017
240.064
237.156
234.294
231.476
228.701
225.969
223.28
220.631
218.023
215.455
776.576
768.73
760.795
752.778
744.688
736.534
728.325
720.07
711.778
703.459
695.121
686.772
678.422
670.077
661.747
653.438
645.158
636.912
628.708
620.551
612.447
604.401
596.416
588.498
580.65
572.875
565.177
557.559
550.022
542.57
535.203
527.923
520.732
513.631
506.62
499.7
492.873
486.137
479.493
472.942
466.483
460.116
453.84
447.655
441.561
435.557
429.643
423.816
418.078
412.427
406.861
401.381
395.985
390.673
385.442
380.293
375.223
370.233
365.321
360.486
355.726
351.042
346.431
341.892
337.425
333.029
328.701
324.442
320.25
316.124
312.063
308.066
304.132
300.259
296.448
292.697
289.004
285.369
281.791
278.269
274.802
271.39
268.03
264.723
261.467
258.261
255.105
251.998
248.939
245.927
242.962
240.042
237.166
234.335
231.547
228.801
226.097
223.434
220.811
218.228
773.257
765.579
757.816
749.974
742.063
734.09
726.064
717.994
709.887
701.752
693.597
685.431
677.261
669.094
660.94
652.803
644.691
636.611
628.568
620.568
612.616
604.717
596.875
589.095
581.381
573.734
566.16
558.66
551.238
543.894
536.631
529.452
522.356
515.346
508.421
501.584
494.835
488.174
481.601
475.116
468.72
462.413
456.193
450.062
444.018
438.061
432.19
426.405
420.706
415.091
409.559
404.11
398.743
393.457
388.251
383.125
378.076
373.105
368.21
363.391
358.645
353.973
349.373
344.844
340.385
335.995
331.673
327.419
323.23
319.106
315.046
311.049
307.115
303.241
299.427
295.672
291.975
288.336
284.753
281.225
277.751
274.331
270.963
267.647
264.382
261.167
258.002
254.884
251.814
248.791
245.814
242.882
239.994
237.15
234.349
231.591
228.873
226.197
223.56
220.963
770.032
762.514
754.915
747.241
739.5
731.7
723.849
715.953
708.023
700.064
692.084
684.093
676.095
668.1
660.114
652.143
644.194
636.273
628.385
620.537
612.732
604.976
597.273
589.628
582.043
574.522
567.068
559.685
552.374
545.137
537.978
530.896
523.895
516.974
510.136
503.381
496.709
490.122
483.619
477.202
470.869
464.621
458.459
452.381
446.387
440.478
434.652
428.909
423.249
417.671
412.174
406.757
401.42
396.162
390.982
385.879
380.852
375.901
371.024
366.221
361.491
356.832
352.244
347.725
343.276
338.894
334.578
330.329
326.145
322.024
317.967
313.971
310.036
306.162
302.347
298.59
294.89
291.246
287.659
284.125
280.646
277.219
273.845
270.521
267.248
264.025
260.85
257.723
254.643
251.609
248.621
245.678
242.779
239.923
237.11
234.339
231.609
228.919
226.27
223.659
766.895
759.531
752.088
744.575
736.997
729.362
721.677
713.949
706.187
698.396
690.585
682.76
674.929
667.097
659.273
651.461
643.668
635.901
628.163
620.461
612.799
605.182
597.614
590.099
582.641
575.242
567.907
560.637
553.435
546.304
539.245
532.261
525.352
518.521
511.767
505.093
498.499
491.985
485.553
479.202
472.933
466.745
460.639
454.615
448.673
442.811
437.031
431.331
425.711
420.17
414.708
409.324
404.018
398.788
393.635
388.557
383.553
378.622
373.765
368.979
364.265
359.62
355.045
350.538
346.098
341.725
337.418
333.175
328.996
324.879
320.825
316.832
312.898
309.024
305.208
301.45
297.748
294.102
290.51
286.973
283.488
280.056
276.675
273.345
270.064
266.833
263.65
260.514
257.425
254.382
251.384
248.43
245.52
242.653
239.829
237.046
234.304
231.602
228.94
226.317
763.843
756.625
749.333
741.972
734.55
727.073
719.547
711.98
704.379
696.749
689.099
681.434
673.761
666.088
658.418
650.76
643.118
635.498
627.906
620.345
612.822
605.339
597.902
590.514
583.179
575.9
568.679
561.521
554.426
547.398
540.439
533.55
526.733
519.989
513.319
506.726
500.208
493.768
487.405
481.121
474.915
468.787
462.738
456.768
450.877
445.064
439.329
433.672
428.093
422.59
417.164
411.814
406.539
401.339
396.213
391.16
386.179
381.271
376.434
371.666
366.968
362.339
357.778
353.283
348.855
344.491
340.192
335.957
331.784
327.673
323.622
319.632
315.701
311.828
308.012
304.253
300.55
296.902
293.308
289.767