/*--------------------------------*- C++ -*----------------------------------*\
| =========                 |                                                 |
| \\      /  F ield         | OpenFOAM: The Open Source CFD Toolbox           |
|  \\    /   O peration     | Version:  2406                                  |
|   \\  /    A nd           | Website:  www.openfoam.com                      |
|    \\/     M anipulation  |                                                 |
\*---------------------------------------------------------------------------*/
FoamFile
{
    version     2.0;
    format      ascii;
    arch        "LSB;label=32;scalar=64";
    class       volVectorField;
    location    "1e-05/dielectric";
    object      EExtAmp;
}
// * * * * * * * * * * * * * * * * * * * * * * * * * * * * * * * * * * * * * //

dimensions      [1 1 -3 0 0 -1 0];

internalField   nonuniform List<vector> 
3038
(
(9980.864018 -3748.705006 -0)
(41249.23573 -3716.607216 -0)
(103533.7013 576.8340796 -0)
(203355.2931 15162.75562 -0)
(331647.9363 45311.17775 -0)
(477871.4338 98313.81293 -0)
(634332.6358 184095.4276 -0)
(787640.8612 308989.0844 -0)
(918463.0302 466080.7448 -0)
(1011983.694 632387.5629 -0)
(1070879.867 794856.2252 -0)
(1102473.53 977643.0221 -0)
(1095064.152 1198786.94 -0)
(1025329.21 1439992.248 -0)
(9979.88983 -3931.160216 -0)
(41279.81648 -4316.286318 -0)
(103743.0062 -1206.401962 -0)
(204112.9269 11206.92367 -0)
(333812.2437 38071.41727 -0)
(483435.9652 85859.42798 -0)
(647352.3057 163805.4121 -0)
(814524.6569 279261.9912 -0)
(966075.8609 428886.1911 -0)
(1083796.04 593787.8509 -0)
(1167371.192 761964.4823 -0)
(1224252.658 960023.609 -0)
(1237334.828 1213212.12 -0)
(1166822.191 1505720.719 -0)
(9976.613749 -4112.559706 -0)
(41297.99234 -4915.209548 -0)
(103913.4845 -2993.183995 -0)
(204774.303 7228.573167 -0)
(335740.9231 30736.47721 -0)
(488431.4511 73044.43158 -0)
(659185.2407 142316.5509 -0)
(839546.9837 246231.6912 -0)
(1011991.931 384537.3559 -0)
(1156052.109 543267.7258 -0)
(1269208.806 713080.8372 -0)
(1360329.323 924392.0821 -0)
(1406891.072 1214772.344 -0)
(1343743.628 1580509.225 -0)
(9971.031748 -4293.872958 -0)
(41303.71864 -5514.692732 -0)
(104044.8505 -4785.011807 -0)
(205337.7752 3227.434101 -0)
(337424.652 23313.92523 -0)
(492810.6748 59904.90508 -0)
(669635.0101 119733.7206 -0)
(862083.7442 210062.5288 -0)
(1054781.548 332909.4925 -0)
(1226488.168 479445.1331 -0)
(1374101.364 644345.1434 -0)
(1510933.519 862933.8939 -0)
(1612258.91 1191694.84 -0)
(1576738.446 1659889.728 -0)
(9963.140724 -4475.060666 -0)
(41296.95646 -6114.526172 -0)
(104136.8464 -6581.099676 -0)
(205801.8872 -793.8804533 -0)
(338855.2404 15814.89925 -0)
(496531.3555 46484.98657 -0)
(678517.1352 96195.59159 -0)
(881494.9967 171053.3046 -0)
(1092764.598 274241.7833 -0)
(1291899.666 401469.2826 -0)
(1477609.919 551937.7465 -0)
(1673100.578 765506.2827 -0)
(1862294.406 1123084.436 -0)
(1903507.315 1725163.252 -0)
(9952.93853 -4656.08205 -0)
(41277.67284 -6714.493902 -0)
(104189.2444 -8380.638608 -0)
(206165.3872 -4832.652417 -0)
(340025.7847 8251.222598 -0)
(499557.5164 32833.54984 -0)
(685668.3377 71868.93455 -0)
(897166.8368 129635.96 -0)
(1124108.17 209237.3047 -0)
(1348130.231 309537.1824 -0)
(1572326.708 433300.9301 -0)
(1837303.056 621047.3391 -0)
(2160634.321 974645.5914 -0)
(2397736.754 1714498.759 -0)
(9940.423994 -4837.372812 -0)
(41245.84089 -7315.113886 -0)
(104201.847 -10183.94074 -0)
(206427.2396 -8887.621078 -0)
(340930.7918 633.2938374 -0)
(501860.6368 19000.51258 -0)
(690955.2905 46939.85447 -0)
(908561.7628 86361.05964 -0)
(1147014.065 139114.8898 -0)
(1390399.713 205427.7627 -0)
(1647558.454 289147.0145 -0)
(1982440.384 422418.3245 -0)
(2487123.789 700092.2529 -0)
(3213131.751 1438663.837 -0)
(893654.9257 1643579.158 -0)
(729625.69 1767884.625 -0)
(565970.8802 1826531.436 -0)
(422682.9528 1843320.479 -0)
(304010.5537 1839825.583 -0)
(206689.8395 1830016.747 -0)
(125452.1178 1821711.045 -0)
(55279.98579 1818966.61 -0)
(-8023.55507 1823830.561 -0)
(-67917.1149 1837370.026 -0)
(-127388.2406 1860221.357 -0)
(-189249.2178 1892855.942 -0)
(-256433.2182 1935674.103 -0)
(-332308.1556 1988965.627 -0)
(-421036.1218 2052712.312 -0)
(-527990.8851 2126133.884 -0)
(-660177.3202 2206772.443 -0)
(-826390.5704 2288770.787 -0)
(-1036340.39 2359932.58 -0)
(-1296989.441 2397652.802 -0)
(-1603529.671 2366347.736 -0)
(-1925685.357 2225952.554 -0)
(1000726.039 1758404.776 -0)
(787052.7973 1890412.028 -0)
(585657.9743 1933419.068 -0)
(421998.9504 1929346.671 -0)
(295611.0879 1907822.423 -0)
(197820.1762 1884644.641 -0)
(119793.7008 1867179.525 -0)
(54589.33109 1858583.197 -0)
(-2913.337085 1860141.819 -0)
(-56563.54607 1872421.607 -0)
(-109477.7454 1895804.231 -0)
(-164483.9497 1930724.686 -0)
(-224510.4152 1977758.685 -0)
(-292985.5816 2037608.197 -0)
(-374325.3633 2110962.662 -0)
(-474587.4294 2198127.71 -0)
(-602340.8174 2298163.36 -0)
(-769614.3084 2406994.485 -0)
(-992104.6294 2513523.121 -0)
(-1285907.387 2592569.847 -0)
(-1654407.755 2595737.23 -0)
(-2059019.178 2453383.601 -0)
(1127897.559 1916143.219 -0)
(839634.6735 2048095.97 -0)
(590444.0848 2058898.445 -0)
(406593.6334 2022267.688 -0)
(275912.1345 1976473.807 -0)
(181142.875 1937015.313 -0)
(109070.6391 1909143.094 -0)
(50856.28479 1894186.526 -0)
(674.8739586 1892216.043 -0)
(-45500.74145 1903085.324 -0)
(-90740.59106 1926827.373 -0)
(-137734.9898 1963806.259 -0)
(-189249.297 2014778.798 -0)
(-248579.9418 2080913.965 -0)
(-320138.1422 2163755.527 -0)
(-410321.8748 2265035.517 -0)
(-528889.6329 2386078.424 -0)
(-691021.5774 2526127.229 -0)
(-919693.0194 2677971.2 -0)
(-1245312.001 2817466.357 -0)
(-1691018.169 2882621.799 -0)
(-2217894.249 2752000.025 -0)
(1284591.519 2148036.222 -0)
(876784.6536 2253648.569 -0)
(569423.0542 2203113.573 -0)
(370189.1781 2118807.56 -0)
(242023.8809 2042625.909 -0)
(155498.0136 1984811.933 -0)
(92872.74927 1946006.149 -0)
(43949.47077 1924660.835 -0)
(2680.192904 1919218.793 -0)
(-34807.85315 1928664.405 -0)
(-71310.3004 1952621.948 -0)
(-109200.1969 1991360.168 -0)
(-150899.8577 2045809.31 -0)
(-199343.0662 2117620.124 -0)
(-258591.8157 2209264.405 -0)
(-334841.6086 2324135.987 -0)
(-438226.0274 2466485.207 -0)
(-586138.8492 2640600.632 -0)
(-808977.1775 2847299.251 -0)
(-1157269.868 3071735.48 -0)
(-1695558.021 3246858.986 -0)
(-2416738.915 3172251.777 -0)
(1486506.214 2521892.01 -0)
(874254.7232 2520911.542 -0)
(505686.8788 2360679.651 -0)
(305715.6727 2212136.324 -0)
(191686.3118 2101522.184 -0)
(120410.4543 2025100.568 -0)
(71261.37787 1975972.223 -0)
(34018.51835 1948852.997 -0)
(3191.403586 1940340.538 -0)
(-24504.47243 1948510.918 -0)
(-51331.82609 1972577.764 -0)
(-79160.07687 2012707.743 -0)
(-109885.8957 2069981.226 -0)
(-145836.7392 2146491.027 -0)
(-190328.1715 2245597.063 -0)
(-248640.2278 2372380.87 -0)
(-329968.9991 2534341.924 -0)
(-451652.7498 2742201.113 -0)
(-648693.9719 3009619.888 -0)
(-994160.167 3345488.91 -0)
(-1627836.497 3709765.741 -0)
(-2679864.515 3823929.964 -0)
(1760928.495 3195943.371 -0)
(775451.1706 2851111.566 -0)
(375335.774 2513647.897 -0)
(207290.1987 2290487.159 -0)
(124458.5487 2146913.972 -0)
(76580.89526 2054610.245 -0)
(44945.70483 1997246.687 -0)
(21552.41161 1965697.492 -0)
(2465.171765 1954874.608 -0)
(-14544.45399 1962080.366 -0)
(-30958.01049 1986190.564 -0)
(-47975.16333 2027285.316 -0)
(-66807.50768 2086556.116 -0)
(-88955.9687 2166437.236 -0)
(-116603.9144 2270997.151 -0)
(-153344.8391 2406729.976 -0)
(-205767.5889 2584066.87 -0)
(-287392.7004 2820271.993 -0)
(-429767.7054 3144898.078 -0)
(-717178.1883 3608020.76 -0)
(-1394823.644 4271494.77 -0)
(-3051454.249 4964786.457 -0)
(2156605.991 4563699.165 -0)
(445383.2829 3178399.37 -0)
(153294.3942 2621462.532 -0)
(75197.20537 2337396.83 -0)
(43420.82302 2172050.754 -0)
(26333.87501 2070316.011 -0)
(15373.36191 2008322.71 -0)
(7384.639869 1974353.86 -0)
(917.781285 1962286.492 -0)
(-4820.157153 1968971.889 -0)
(-10345.8577 1993093.828 -0)
(-16073.15845 2034682.588 -0)
(-22418.97438 2094988.885 -0)
(-29902.37435 2176633.81 -0)
(-39287.02035 2284081.703 -0)
(-51853.54708 2424642.115 -0)
(-70028.30321 2610533.681 -0)
(-99130.2761 2863408.307 -0)
(-153537.6039 3225456.599 -0)
(-286013.6753 3791394.026 -0)
(-775012.3443 4821443.654 -0)
(-3618374.919 7243405.824 -0)
(-2204152.296 1970987.327 -0)
(-2402347.148 1673286.299 -0)
(-2532631.205 1392335.977 -0)
(-2625129.111 1163117.386 -0)
(-2712822.285 1003532.799 -0)
(-2826032.456 932060.4432 -0)
(-2990706.975 990583.3934 -0)
(-3198843.906 1295230.911 -0)
(-3105562.792 2226455.855 -0)
(-2396646.058 2134443.049 -0)
(-2602374.744 1769491.17 -0)
(-2704421.959 1445483.411 -0)
(-2751094.381 1199433.551 -0)
(-2781817.8 1043338.748 -0)
(-2819560.455 989294.1505 -0)
(-2864992.88 1068418.428 -0)
(-2863882.149 1350485.198 -0)
(-2596735.224 1939498.999 -0)
(-2641493.686 2318394.193 -0)
(-2845249.773 1848774.19 -0)
(-2899096.818 1466413.265 -0)
(-2883650.68 1198574.132 -0)
(-2847911.899 1040970.215 -0)
(-2809909.805 991492.8984 -0)
(-2758512.73 1062383.313 -0)
(-2638863.539 1278888.481 -0)
(-2326764.603 1638724.729 -0)
(-2974159.253 2519243.462 -0)
(-3150076.769 1891996.273 -0)
(-3122407.71 1440015.729 -0)
(-3024593.484 1152159.345 -0)
(-2914941.45 993917.4736 -0)
(-2805794.893 943948.2163 -0)
(-2680238.577 996170.2228 -0)
(-2493376.952 1148056.77 -0)
(-2177228.763 1365682.926 -0)
(-3459798.328 2712479.553 -0)
(-3539039.029 1862786.568 -0)
(-3374706.271 1345790.468 -0)
(-3170428.13 1052179.351 -0)
(-2981761.911 902120.0366 -0)
(-2808461.609 854172.5472 -0)
(-2627300.089 888770.4842 -0)
(-2401319.658 990057.4657 -0)
(-2091704.201 1121405.623 -0)
(-4226866.16 2802703.107 -0)
(-4028662.609 1696086.655 -0)
(-3643512.35 1159247.99 -0)
(-3309810.19 892873.7688 -0)
(-3042231.538 768122.5197 -0)
(-2814376.748 730282.8857 -0)
(-2592883.987 753810.0316 -0)
(-2343825.791 819634.2389 -0)
(-2041689.067 898557.8238 -0)
(-5545488.369 2466778.103 -0)
(-4595545.89 1293919.078 -0)
(-3891057.412 860933.6325 -0)
(-3421865.933 675041.2885 -0)
(-3086284.621 598207.7429 -0)
(-2817662.495 581032.2206 -0)
(-2569859.933 601369.6338 -0)
(-2308267.506 643797.6942 -0)
(-2012176.111 689817.1858 -0)
(-1761504.07 3675721.92 -0)
(-427332.2823 2295923.582 -0)
(-181161.5337 1640221.276 -0)
(-106096.505 1250629.496 -0)
(-71400.25124 990436.3382 -0)
(-51245.61874 805404.7178 -0)
(-38147.31704 668763.2481 -0)
(-29112.98577 565203.5367 -0)
(-22655.5826 485118.5543 -0)
(-17927.20256 422118.441 -0)
(-14400.72528 371791.8196 -0)
(-11729.96527 331015.3272 -0)
(-9679.293729 297536.3457 -0)
(-8084.37508 269706.2878 -0)
(-6828.546068 246303.4597 -0)
(-5827.826372 226412.2549 -0)
(-5021.044631 209339.1934 -0)
(-4363.164287 194553.7461 -0)
(-3820.69142 181646.143 -0)
(-3368.468548 170296.9829 -0)
(-2987.403477 160255.1612 -0)
(-2662.842357 151321.7498 -0)
(-2383.396837 143338.1589 -0)
(-2140.088757 136177.3939 -0)
(-1925.70978 129737.5965 -0)
(-1734.327978 123937.333 -0)
(-1560.899558 118712.2496 -0)
(-1400.949559 114012.809 -0)
(-1250.281777 109802.9521 -0)
(-1104.682225 106059.6582 -0)
(-959.5870869 102773.4759 -0)
(-809.6771772 99950.17221 -0)
(-648.3306218 97613.80134 -0)
(-466.819021 95811.76477 -0)
(-253.0513692 94622.87192 -0)
(10.52134789 94170.15047 -0)
(350.7209229 94641.6873 -0)
(811.4041245 96326.31286 -0)
(1471.575553 99679.81291 -0)
(2495.73202 105462.1278 -0)
(4310.436416 115064.862 -0)
(8432.456745 131441.9124 -0)
(22680.20135 162361.2215 -0)
(102317.7044 234668.1752 -0)
(-1733757.767 2569022.343 -0)
(-852125.2646 2009832.409 -0)
(-475880.4632 1535080.981 -0)
(-302339.7421 1199504.23 -0)
(-208455.3235 960740.2705 -0)
(-150948.8949 786286.0681 -0)
(-112836.2825 655692.9352 -0)
(-86320.82192 555928.9344 -0)
(-67283.62043 478368.5539 -0)
(-53306.74489 417111.3458 -0)
(-42864.08915 368018.7402 -0)
(-34944.90407 328132.2387 -0)
(-28857.81674 295304.6014 -0)
(-24119.15326 267957.2261 -0)
(-20384.84607 244916.1484 -0)
(-17406.85529 225298.9334 -0)
(-15004.30372 208435.4813 -0)
(-13043.89596 193811.9319 -0)
(-11426.41692 181030.5226 -0)
(-10077.29146 169780.5726 -0)
(-8939.885876 159817.3468 -0)
(-7970.701975 150946.5938 -0)
(-7135.912561 143013.1781 -0)
(-6408.836164 135892.6577 -0)
(-5768.042793 129485.0353 -0)
(-5195.890068 123710.1992 -0)
(-4677.372675 118504.6895 -0)
(-4199.180309 113819.498 -0)
(-3748.841576 109618.7396 -0)
(-3313.845684 105879.1842 -0)
(-2880.661272 102590.7289 -0)
(-2433.546815 99757.92958 -0)
(-1952.954056 97402.8426 -0)
(-1413.193761 95569.68736 -0)
(-778.8204797 94332.21538 -0)
(1.305461401 93805.22384 -0)
(1004.581141 94162.70214 -0)
(2355.417698 95667.31468 -0)
(4270.936741 98720.62442 -0)
(7174.870221 103953.1581 -0)
(12019.71372 112388.8479 -0)
(21296.68363 125696.8954 -0)
(42204.87879 146009.6566 -0)
(92471.36876 169366.6003 -0)
(-1712848.425 1934780.557 -0)
(-1077238.28 1690379.376 -0)
(-690510.675 1374952.662 -0)
(-467110.6666 1110128.19 -0)
(-331137.3815 905635.4371 -0)
(-242989.6578 749837.9745 -0)
(-182943.2297 630442.1067 -0)
(-140574.0256 537881.7428 -0)
(-109912.3526 465177.2113 -0)
(-87289.94258 407298.0384 -0)
(-70330.44972 360608.3369 -0)
(-57435.99538 322460.1909 -0)
(-47503.58736 290907.597 -0)
(-39757.11696 264506.7338 -0)
(-33642.33006 242176.0542 -0)
(-28758.53142 223097.5841 -0)
(-24812.87414 206646.7667 -0)
(-21589.1383 192342.271 -0)
(-18926.11728 179809.8054 -0)
(-16702.46477 168755.7603 -0)
(-14825.90445 158947.8794 -0)
(-13225.46265 150201.0791 -0)
(-11845.87093 142367.0064 -0)
(-10643.4928 135326.2399 -0)
(-9583.255098 128982.4455 -0)
(-8636.259679 123258.111 -0)
(-7777.911768 118091.5394 -0)
(-6986.403774 113434.7772 -0)
(-6241.336142 109252.2978 -0)
(-5522.288915 105520.4765 -0)
(-4807.232868 102227.9537 -0)
(-4070.634291 99376.95274 -0)
(-3280.940016 96985.6923 -0)
(-2396.927562 95092.30129 -0)
(-1362.142725 93760.92775 -0)
(-96.02983266 93090.97002 -0)
(1521.178005 93230.66776 -0)
(3676.383851 94396.66654 -0)
(6679.820043 96900.71082 -0)
(11087.18674 101178.9254 -0)
(17977.92825 107788.005 -0)
(29565.53652 117184.5 -0)
(50129.73041 128456.4407 -0)
(84266.42248 133869.7696 -0)
(-1699198.208 1515388.367 -0)
(-1204017.084 1398987.898 -0)
(-840609.7801 1194830.746 -0)
(-597339.1409 996914.5627 -0)
(-434923.4593 831290.6328 -0)
(-323927.5594 699007.2101 -0)
(-246065.9138 594588.2152 -0)
(-190201.6135 511989.1825 -0)
(-149364.806 446128.0558 -0)
(-119035.7516 393063.469 -0)
(-96190.73617 349822.8726 -0)
(-78756.7977 314181.9567 -0)
(-65285.70401 284474.8678 -0)
(-54750.40872 259447.8429 -0)
(-46413.45446 238150.7489 -0)
(-39739.5503 219857.7913 -0)
(-34336.21479 204009.7868 -0)
(-29912.84305 190172.2315 -0)
(-26252.22366 178004.7182 -0)
(-23190.50214 167238.3453 -0)
(-20602.82835 157658.9379 -0)
(-18392.96495 149094.707 -0)
(-16485.81151 141407.1627 -0)
(-14821.98871 134484.2131 -0)
(-13353.7238 128234.8732 -0)
(-12041.60251 122585.4178 -0)
(-10852.03967 117476.7322 -0)
(-9755.275001 112862.4368 -0)
(-8723.544875 108707.5721 -0)
(-7729.147729 104987.9745 -0)
(-6742.304747 101690.5093 -0)
(-5728.682541 98814.11481 -0)
(-4646.16354 96371.62743 -0)
(-3440.188623 94392.67547 -0)
(-2036.800138 92928.15934 -0)
(-332.0008157 92056.70739 -0)
(1825.304661 91893.06937 -0)
(4662.301912 92597.31076 -0)
(8534.070913 94379.79455 -0)
(14018.31228 97483.77387 -0)
(22080.36048 102085.7205 -0)
(34288.27175 107930.0826 -0)
(52692.76268 113216.9252 -0)
(77501.94505 112059.686 -0)
(-1690856.562 1201800.302 -0)
(-1278731.642 1142269.438 -0)
(-943242.4856 1012243.149 -0)
(-695621.595 870942.4011 -0)
(-518393.4317 743773.0986 -0)
(-391774.0345 637167.2846 -0)
(-300497.4185 550113.315 -0)
(-233891.8402 479483.5255 -0)
(-184665.6582 422023.0327 -0)
(-147824.6291 374947.484 -0)
(-119913.1146 336034.8167 -0)
(-98511.88414 303559.3085 -0)
(-81907.88742 276193.0856 -0)
(-68875.13455 252915.2958 -0)
(-58527.50535 232938.5481 -0)
(-50218.56474 215652.0357 -0)
(-43472.36886 200578.5158 -0)
(-37935.18146 187342.3951 -0)
(-33341.7029 175646.0766 -0)
(-29491.24091 165251.9963 -0)
(-26230.47708 155968.9357 -0)
(-23440.86422 147641.9911 -0)
(-21029.60996 140145.2625 -0)
(-18923.21763 133376.0781 -0)
(-17062.49787 127250.3211 -0)
(-15398.51976 121699.1011 -0)
(-13889.49984 116666.6262 -0)
(-12498.44727 112108.611 -0)
(-11190.99815 107990.9086 -0)
(-9933.014074 104288.7256 -0)
(-8687.944677 100986.7398 -0)
(-7413.931474 98079.88481 -0)
(-6060.130462 95574.473 -0)
(-4561.39322 93489.86451 -0)
(-2830.465515 91861.16389 -0)
(-746.6578164 90742.91053 -0)
(1860.985827 90212.71575 -0)
(5239.46826 90372.07115 -0)
(9751.311173 91336.85415 -0)
(15930.91158 93196.98724 -0)
(24544.17937 95893.0872 -0)
(36562.29376 98895.89621 -0)
(52725.48115 100522.4722 -0)
(71933.53041 97086.453 -0)
(-1685516.014 943853.5424 -0)
(-1323167.294 913403.4548 -0)
(-1011158.203 834109.6623 -0)
(-766091.7445 739386.4924 -0)
(-581867.8182 648130.5294 -0)
(-445656.5662 567602.0288 -0)
(-345181.4196 499148.8379 -0)
(-270715.5053 441774.3156 -0)
(-215073.175 393814.5753 -0)
(-173085.4873 353606.0208 -0)
(-141063.3037 319703.1308 -0)
(-116371.6001 290917.6854 -0)
(-97119.0834 266295.6766 -0)
(-81938.97515 245078.2267 -0)
(-69836.07508 226663.1607 -0)
(-60080.14206 210571.6564 -0)
(-52130.846 196421.0212 -0)
(-45584.66197 183903.9182 -0)
(-40137.61724 172772.6579 -0)
(-35558.99068 162826.4222 -0)
(-31671.97448 153900.9119 -0)
(-28339.27385 145860.9967 -0)
(-25452.9568 138595.6493 -0)
(-22927.38041 132013.4643 -0)
(-20693.53793 126038.5079 -0)
(-18694.21074 120607.5645 -0)
(-16880.34773 115668.795 -0)
(-15208.58323 111180.5483 -0)
(-13638.90141 107109.8003 -0)
(-12131.7681 103431.0806 -0)
(-10645.00467 100126.5697 -0)
(-9130.678818 97186.75318 -0)
(-7531.319155 94610.76088 -0)
(-5774.268638 92406.62018 -0)
(-3763.456929 90592.18258 -0)
(-1368.168222 89196.45775 -0)
(1592.205619 88259.57945 -0)
(5368.903195 87828.1707 -0)
(10309.73248 87939.53142 -0)
(16882.23019 88579.16742 -0)
(25662.53179 89578.98128 -0)
(37198.17086 90405.66534 -0)
(51555.39836 89828.18446 -0)
(67358.94655 85773.73703 -0)
(-1681205.117 716034.9788 -0)
(-1347713.509 703835.6518 -0)
(-1052624.576 662072.2008 -0)
(-812522.7644 606460.5032 -0)
(-626372.2374 548249.3377 -0)
(-485419.6691 493265.6235 -0)
(-379589.1239 443807.01 -0)
(-300101.9481 400345.1925 -0)
(-240085.7293 362543.5277 -0)
(-194408.9655 329773.1243 -0)
(-159317.2111 301349.5021 -0)
(-132082.2839 276631.0662 -0)
(-110721.2614 255053.1167 -0)
(-93787.00172 236133.9348 -0)
(-80217.34958 219469.7387 -0)
(-69227.90954 204724.4488 -0)
(-60234.94714 191618.1305 -0)
(-52799.86697 179917.9094 -0)
(-46590.41468 169431.0521 -0)
(-41353.48123 159997.577 -0)
(-36894.45882 151483.0084 -0)
(-33061.31503 143773.9902 -0)
(-29733.77317 136776.1386 -0)
(-26816.27792 130410.9549 -0)
(-24231.92061 124611.7762 -0)
(-21916.62502 119321.5914 -0)
(-19815.05289 114492.9833 -0)
(-17878.3868 110087.5524 -0)
(-16062.09215 106073.8218 -0)
(-14322.47331 102425.6049 -0)
(-12612.95046 99122.32597 -0)
(-10881.01128 96149.88818 -0)
(-9064.785491 93500.13837 -0)
(-7087.356721 91169.40486 -0)
(-4848.281903 89157.75776 -0)
(-2212.865498 87468.68605 -0)
(1000.919691 86106.6613 -0)
(5038.295214 85069.64195 -0)
(10223.36626 84333.0599 -0)
(16961.42292 83818.27681 -0)
(25692.26376 83332.62265 -0)
(36718.93575 82470.37472 -0)
(49813.98332 80507.83966 -0)
(63631.28844 76475.69313 -0)
(177967.3955 128147.0054 -0)
(172372.4212 57395.08085 -0)
(147344.9949 27322.72011 -0)
(125524.1432 12894.49342 -0)
(108058.8809 5580.400066 -0)
(93979.19093 1813.009711 -0)
(82379.28394 -81.38665047 -0)
(72614.79929 -952.1377276 -0)
(64246.5122 -1255.58638 -0)
(56972.46674 -1247.012908 -0)
(50579.6773 -1072.986035 -0)
(44913.17929 -818.7789565 -0)
(39856.67173 -534.0682199 -0)
(35320.33886 -247.4435718 -0)
(31233.05474 25.15393591 -0)
(27537.28192 275.4057081 -0)
(24185.64084 499.5692668 -0)
(21138.53406 696.6170966 -0)
(18362.45625 867.0960588 -0)
(15828.76115 1012.426313 -0)
(13512.74133 1134.469929 -0)
(11392.92883 1235.267239 -0)
(9450.553413 1316.87956 -0)
(7669.113733 1381.299981 -0)
(6034.031595 1430.406238 -0)
(4532.368827 1465.93724 -0)
(3152.593365 1489.481748 -0)
(1884.386377 1502.474515 -0)
(718.4831105 1506.199623 -0)
(-353.4593526 1501.801121 -0)
(-1338.973334 1490.29873 -0)
(-2244.876511 1472.604595 -0)
(-3077.356033 1449.537259 -0)
(-3842.041879 1421.831003 -0)
(-4544.069617 1390.141312 -0)
(-5188.13324 1355.048882 -0)
(-5778.529932 1317.064895 -0)
(-6319.19879 1276.638904 -0)
(-6813.755559 1234.168655 -0)
(-7265.524535 1190.009699 -0)
(-7677.567595 1144.482508 -0)
(-8052.710145 1097.876162 -0)
(-8393.563781 1050.449464 -0)
(-8702.545547 1002.431318 -0)
(-8981.894256 954.0220803 -0)
(-9233.684774 905.396543 -0)
(-9459.840997 856.708052 -0)
(-9662.148204 808.0926289 -0)
(-9842.264998 759.6721222 -0)
(-10001.73449 711.5559133 -0)
(-10141.99431 663.8413557 -0)
(-10264.38512 616.6136027 -0)
(-10370.15775 569.9455282 -0)
(-10460.47911 523.8982646 -0)
(-10536.43754 478.5225574 -0)
(-10599.04783 433.8606954 -0)
(-10649.25618 389.9485359 -0)
(-10687.94519 346.81715 -0)
(-10715.93857 304.4937382 -0)
(-10734.00569 263.0017736 -0)
(-10742.86577 222.3606458 -0)
(-10743.19158 182.5851669 -0)
(-10735.61282 143.6852861 -0)
(-10720.71896 105.6662509 -0)
(-10699.06183 68.5291996 -0)
(-10671.15787 32.27203405 -0)
(-10637.4902 -3.109598907 -0)
(-10598.51058 -37.62143005 -0)
(-10554.6413 -71.2699168 -0)
(-10506.27696 -104.0618205 -0)
(-10453.78629 -136.0040172 -0)
(-10397.5138 -167.103497 -0)
(-10337.78134 -197.3674616 -0)
(-10274.88966 -226.8034968 -0)
(-10209.11975 -255.4197881 -0)
(-10140.73427 -283.2253101 -0)
(-10069.97876 -310.2299926 -0)
(-9997.082883 -336.4448463 -0)
(-9922.26152 -361.8819993 -0)
(-9845.715778 -386.5546674 -0)
(-9767.633883 -410.4770691 -0)
(-9688.191951 -433.6642601 -0)
(-9607.554673 -456.1319362 -0)
(-9525.875916 -477.8962249 -0)
(-9443.299264 -498.9734508 -0)
(-9359.958549 -519.3799199 -0)
(-9275.978361 -539.1317409 -0)
(-9191.474551 -558.2446588 -0)
(-9106.554754 -576.733939 -0)
(-9021.318904 -594.6143074 -0)
(-8935.859725 -611.8999159 -0)
(-8850.263237 -628.6043578 -0)
(-8764.609215 -644.7407288 -0)
(-8678.971629 -660.3216906 -0)
(-8593.419044 -675.3595749 -0)
(-8508.015001 -689.8664613 -0)
(-8422.818356 -703.8542819 -0)
(-8337.883582 -717.3348835 -0)
(-8253.261058 -730.3200806 -0)
(-8168.997326 -742.8216991 -0)
(-8085.13532 -754.8515785 -0)
(-8001.714587 -766.4215667 -0)
(-7918.771496 -777.5435125 -0)
(-7836.339409 -788.2292276 -0)
(-7754.448869 -798.490453 -0)
(-7673.127769 -808.3388342 -0)
(-7592.401489 -817.7858767 -0)
(-7512.293065 -826.8429145 -0)
(-7432.823319 -835.5210931 -0)
(-7354.010988 -843.8313369 -0)
(-7275.872861 -851.7843296 -0)
(-7198.4239 -859.390511 -0)
(-7121.677345 -866.6600576 -0)
(-7045.644839 -873.602878 -0)
(-6970.336531 -880.2286228 -0)
(-6895.761166 -886.5466758 -0)
(-6821.926195 -892.5661573 -0)
(-6748.837854 -898.2959379 -0)
(-6676.501248 -903.7446331 -0)
(-6604.920435 -908.9206091 -0)
(-6534.098502 -913.8319979 -0)
(-6464.037623 -918.4866932 -0)
(-6394.739136 -922.8923553 -0)
(-6326.203606 -927.0564262 -0)
(-6258.430868 -930.9861256 -0)
(-6191.420096 -934.6884579 -0)
(-6125.169852 -938.1702299 -0)
(-6059.67812 -941.4380483 -0)
(-5994.942366 -944.4983267 -0)
(-5930.959575 -947.3573018 -0)
(-5867.726281 -950.0210299 -0)
(-5805.238617 -952.4953937 -0)
(-5743.492348 -954.7861202 -0)
(-5682.482893 -956.8987782 -0)
(-5622.205367 -958.8387853 -0)
(-5562.65461 -960.6114247 -0)
(-5503.825197 -962.2218407 -0)
(-5445.711482 -963.675045 -0)
(-5388.307614 -964.975932 -0)
(-5331.607548 -966.1292746 -0)
(-5275.605077 -967.1397298 -0)
(-5220.293849 -968.011852 -0)
(-5165.667367 -968.7500879 -0)
(-5111.719022 -969.3587801 -0)
(-5058.442099 -969.8421802 -0)
(-5005.829782 -970.2044436 -0)
(-4953.875174 -970.4496335 -0)
(-4902.571308 -970.581733 -0)
(-4851.911144 -970.604638 -0)
(-4801.887588 -970.5221598 -0)
(-4752.493498 -970.3380361 -0)
(-4703.721685 -970.0559242 -0)
(-4655.564926 -969.6794046 -0)
(-4608.015962 -969.2119897 -0)
(-4561.067506 -968.6571146 -0)
(-4514.712245 -968.0181445 -0)
(-4468.942843 -967.2983606 -0)
(-4423.751953 -966.5009674 -0)
(-4379.132211 -965.629077 -0)
(-4335.076258 -964.6857006 -0)
(-4291.576741 -963.6737464 -0)
(-4248.626321 -962.5959977 -0)
(-4206.217694 -961.455098 -0)
(-4164.343603 -960.253542 -0)
(-4122.996845 -958.9936513 -0)
(-4082.170305 -957.6775599 -0)
(-4041.856963 -956.3072128 -0)
(-4002.04991 -954.8843525 -0)
(-3962.74237 -953.4105203 -0)
(-3923.927711 -951.8870739 -0)
(-3885.599447 -950.3151954 -0)
(-3847.751247 -948.6959176 -0)
(-3810.376935 -947.0301666 -0)
(-3773.470474 -945.3187979 -0)
(-3737.025956 -943.5626457 -0)
(-3701.037578 -941.7625843 -0)
(-3665.499611 -939.9195713 -0)
(-3630.406375 -938.0346935 -0)
(-3595.752207 -936.1092076 -0)
(-3561.531427 -934.1445514 -0)
(-3527.738323 -932.142344 -0)
(-3494.367133 -930.1043757 -0)
(-3461.412032 -928.0325636 -0)
(-3428.867145 -925.9289027 -0)
(-3396.726555 -923.7954128 -0)
(-3364.984323 -921.634068 -0)
(-3333.634528 -919.4467372 -0)
(-3302.671299 -917.235141 -0)
(-3272.088848 -915.0008092 -0)
(-3241.881516 -912.7450657 -0)
(-3212.043788 -910.469041 -0)
(-3182.570313 -908.1736908 -0)
(-3153.455902 -905.8598388 -0)
(-3124.69552 -903.5282372 -0)
(-3096.284256 -901.1796145 -0)
(-3068.217304 -898.8147241 -0)
(-3040.489934 -896.4343837 -0)
(-3013.097464 -894.0394798 -0)
(-2986.035247 -891.6309573 -0)
(-2959.298659 -889.2097975 -0)
(-2932.883101 -886.7769706 -0)
(-2906.78401 -884.3333952 -0)
(-2880.996884 -881.87991 -0)
(-2855.517304 -879.4172463 -0)
(-2830.340965 -876.9460247 -0)
(-2805.463699 -874.4667756 -0)
(-2780.881472 -871.9799625 -0)
(-2756.590387 -869.4860245 -0)
(-2732.586653 -866.9854281 -0)
(-2708.866548 -864.4786987 -0)
(-2685.426394 -861.9664396 -0)
(-2662.262522 -859.4493253 -0)
(-2639.371247 -856.9280465 -0)
(-2616.748858 -854.4032327 -0)
(-2594.391609 -851.8753623 -0)
(-2572.29572 -849.3446669 -0)
(-2550.457374 -846.8110717 -0)
(-2528.872722 -844.2741643 -0)
(-2507.53788 -841.7332266 -0)
(-2486.4489 -839.1873048 -0)
(-2465.601739 -836.6353343 -0)
(-2444.992198 -834.0763172 -0)
(-2424.615868 -831.5095161 -0)
(-2404.468102 -828.9346653 -0)
(-2384.544035 -826.3521679 -0)
(-2364.83867 -823.7632309 -0)
(-2345.347055 -821.1699294 -0)
(-2326.064531 -818.5751818 -0)
(-2306.987045 -815.9826044 -0)
(-2288.111489 -813.3962572 -0)
(-2269.436015 -810.8202781 -0)
(-2250.960245 -808.2583977 -0)
(-2232.685304 -805.7133866 -0)
(-2214.613596 -803.1864984 -0)
(-2196.74827 -800.6769858 -0)
(-2179.092418 -798.1818246 -0)
(-2161.64804 -795.6957644 -0)
(-2144.414954 -793.2117903 -0)
(-2127.389871 -790.7220607 -0)
(-2110.565867 -788.2192821 -0)
(-2093.932525 -785.6983429 -0)
(-2077.476917 -783.1579255 -0)
(-2061.185437 -780.6016837 -0)
(-2045.046256 -778.0385178 -0)
(-2029.051966 -775.481606 -0)
(-2013.201695 -772.9460742 -0)
(-1997.501976 -770.4455459 -0)
(-1981.965804 -767.9882807 -0)
(-1966.609662 -765.5739372 -0)
(-1951.448965 -763.1920923 -0)
(-1936.492953 -760.8234175 -0)
(-1921.740529 -758.4437393 -0)
(-1907.178566 -756.0302606 -0)
(-1892.783722 -753.5683361 -0)
(-1878.527728 -751.0566185 -0)
(-1864.384916 -748.5085199 -0)
(-1850.33966 -745.9489204 -0)
(-1836.391014 -743.4066478 -0)
(-1822.552491 -740.9049848 -0)
(-1808.846531 -738.4536656 -0)
(-1795.295355 -736.045733 -0)
(-1781.911696 -733.6610023 -0)
(-1768.693425 -731.2751826 -0)
(-1755.624739 -728.8709275 -0)
(-1742.683743 -726.4457102 -0)
(-1729.853089 -724.0124749 -0)
(-1717.128439 -721.5922987 -0)
(-1704.520235 -719.2024068 -0)
(-1692.047423 -716.8456703 -0)
(-1679.72602 -714.5073827 -0)
(-1667.558395 -712.1615671 -0)
(-1655.529176 -709.784039 -0)
(-1643.610391 -707.3655683 -0)
(-1631.773578 -704.9180412 -0)
(-1620.002694 -702.4700606 -0)
(-1608.300953 -700.0541438 -0)
(-1596.68809 -697.6924387 -0)
(-1585.189984 -695.3887405 -0)
(-1573.826914 -693.1305836 -0)
(-1562.607033 -690.898818 -0)
(-1551.527521 -688.6776643 -0)
(-1540.580651 -686.4592099 -0)
(-1529.759495 -684.2414175 -0)
(-1519.0598 -682.0233228 -0)
(-1508.478243 -679.8017894 -0)
(-1498.009585 -677.5717579 -0)
(-1487.645399 -675.3291806 -0)
(-1477.375616 -673.0742392 -0)
(-1467.192242 -670.8122823 -0)
(-1457.092936 -668.5508357 -0)
(-1447.081023 -666.2929487 -0)
(-1437.16007 -664.0317723 -0)
(-1427.327316 -661.7528945 -0)
(-1417.572218 -659.4406026 -0)
(-1407.880513 -657.080168 -0)
(-1398.242232 -654.6559075 -0)
(-1388.657604 -652.1386946 -0)
(-1379.133833 -649.4783804 -0)
(-1369.694764 -646.6350111 -0)
(-1360.41182 -643.5971846 -0)
(-1351.394978 -640.3535967 -0)
(-1342.750101 -636.9596336 -0)
(-1334.570798 -633.6443251 -0)
(-1326.910085 -630.7176977 -0)
(-1319.74367 -628.2693642 -0)
(-1312.895731 -626.7899137 -0)
(-1305.232562 -626.893942 -0)
(-1296.072727 -626.8533398 -0)
(-1285.106337 -627.402707 -0)
(-1271.941742 -627.2057793 -0)
(-1256.877469 -625.7334866 -0)
(-1240.353487 -622.7799098 -0)
(-1222.795477 -617.7971806 -0)
(-1204.574965 -611.4616476 -0)
(-1185.965467 -604.1452313 -0)
(-1166.82034 -596.5492948 -0)
(-1146.765335 -589.102324 -0)
(-1125.443106 -582.2412625 -0)
(-1102.432615 -575.5642972 -0)
(-1077.401124 -569.0635851 -0)
(-1050.277834 -562.2186421 -0)
(-1020.950791 -554.6569509 -0)
(-989.5233298 -546.2902587 -0)
(-956.0948265 -536.8426705 -0)
(-920.7663675 -526.4071139 -0)
(-883.7269595 -514.9591266 -0)
(-845.0242533 -502.5574415 -0)
(-804.8473781 -489.2916439 -0)
(-763.288538 -475.1611207 -0)
(-720.4594213 -460.2008938 -0)
(-676.5710974 -444.5665328 -0)
(-631.7421455 -428.0346444 -0)
(-586.1907289 -411.0510871 -0)
(-540.1289921 -393.3009192 -0)
(-493.7275452 -375.2213785 -0)
(-447.2074555 -356.7940218 -0)
(-400.7129827 -338.2287418 -0)
(-354.3701585 -319.8195871 -0)
(-308.2520875 -301.7497977 -0)
(-262.3403499 -284.4208346 -0)
(-216.5363501 -268.1994978 -0)
(-170.5858484 -253.5888985 -0)
(-124.0593351 -241.2037868 -0)
(-76.22723765 -231.8294299 -0)
(-25.94099172 -226.4427234 -0)
(138561.1745 117035.6011 -0)
(144758.0405 68131.98964 -0)
(132874.1064 39561.68413 -0)
(117913.6842 23549.75916 -0)
(103954.2538 14484.99985 -0)
(91736.76199 9276.614557 -0)