/*--------------------------------*- C++ -*----------------------------------*\
| =========                 |                                                 |
| \\      /  F ield         | OpenFOAM: The Open Source CFD Toolbox           |
|  \\    /   O peration     | Version:  2406                                  |
|   \\  /    A nd           | Website:  www.openfoam.com                      |
|    \\/     M anipulation  |                                                 |
\*---------------------------------------------------------------------------*/
FoamFile
{
    version     2.0;
    format      ascii;
    arch        "LSB;label=32;scalar=64";
    class       volScalarField;
    location    "3e-05/dielectric";
    object      voltExtAmp;
}
// * * * * * * * * * * * * * * * * * * * * * * * * * * * * * * * * * * * * * //

dimensions      [1 2 -3 0 0 -1 0];

internalField   nonuniform List<scalar> 
3038
(
-409.2281956
-667.6246485
-1191.766973
-1976.098201
-2897.320658
-3809.878834
-4626.869576
-5307.89493
-5839.749864
-6229.872772
-6525.640302
-6799.00906
-7076.877067
-7346.541137
-408.6795607
-667.0507927
-1191.722063
-1977.982498
-2903.280035
-3823.047492
-4651.763994
-5350.032599
-5903.9267
-6317.855323
-6637.34766
-6937.940206
-7249.473989
-7556.60762
-408.1050069
-666.3914238
-1191.422286
-1979.300179
-2908.198206
-3834.410099
-4673.671122
-5387.684071
-5962.288775
-6399.526444
-6743.34444
-7073.30152
-7423.509101
-7776.747056
-407.5045437
-665.6464471
-1190.866867
-1980.047805
-2912.061886
-3843.917329
-4692.425866
-5420.384511
-6013.794516
-6473.074673
-6841.085042
-7202.05223
-7596.551801
-8008.181684
-406.8781861
-664.8157973
-1190.05514
-1980.222303
-2914.859327
-3851.525786
-4707.880757
-5447.701936
-6057.405773
-6536.510767
-6927.443052
-7319.854061
-7763.993341
-8251.001264
-406.2259549
-663.8994396
-1188.986553
-1979.820982
-2916.580429
-3857.198754
-4719.910321
-5469.256883
-6092.149311
-6587.780182
-6998.781541
-7420.76831
-7917.433069
-8501.085471
-405.5478769
-662.8973705
-1187.660672
-1978.841545
-2917.21682
-3860.9068
-4728.414738
-5484.740782
-6117.18786
-6624.949962
-7051.243318
-7497.296158
-8042.46351
-8740.858053
-7578.496193
-7763.7934
-7910.144235
-8021.052891
-8102.272849
-8159.239506
-8196.222776
-8216.263196
-8221.350043
-8212.616126
-8190.478627
-8154.71238
-8104.456255
-8038.151826
-7953.407093
-7846.771771
-7713.411237
-7546.691171
-7337.779159
-7075.627357
-6748.238504
-6346.750234
-7820.327017
-8024.041159
-8178.078289
-8290.249329
-8369.895994
-8424.618005
-8459.814256
-8479.069687
-8484.627588
-8477.745443
-8458.916885
-8427.982832
-8384.151454
-8325.932643
-8250.976189
-8155.784751
-8035.25463
-7881.99347
-7685.429945
-7431.03682
-7100.926587
-6679.033295
-8080.897558
-8303.911122
-8462.549683
-8572.294797
-8647.36497
-8697.709404
-8729.702641
-8747.286967
-8752.819134
-8747.593728
-8732.136979
-8706.348005
-8669.530165
-8620.325597
-8556.539282
-8474.80826
-8370.029339
-8234.403881
-8055.928622
-7816.361599
-7489.877713
-7047.716977
-8367.796509
-8609.211436
-8766.334988
-8868.040097
-8934.602796
-8978.050952
-9005.283711
-9020.265838
-9025.260743
-9021.484107
-9009.438992
-8989.070334
-8959.802539
-8920.47949
-8869.192054
-8802.937756
-8716.991323
-8603.744107
-8450.564573
-8236.027208
-7924.532815
-7465.319017
-8694.622193
-8947.810713
-9092.010703
-9177.668386
-9230.972373
-9264.798527
-9285.704397
-9297.190063
-9301.16736
-9298.640701
-9290.028964
-9275.308052
-9254.047111
-9225.359918
-9187.757684
-9138.847113
-9074.739398
-8988.861204
-8869.442694
-8694.000308
-8417.551709
-7954.074628
-9088.337083
-9329.471876
-9440.814888
-9500.079046
-9535.037706
-9556.651114
-9569.847203
-9577.08098
-9579.643754
-9578.201512
-9573.032639
-9564.129689
-9551.225746
-9533.76264
-9510.791215
-9480.760861
-9441.089015
-9387.230139
-9310.45597
-9191.881182
-8984.465884
-8557.870435
-9607.74887
-9762.414018
-9810.195817
-9832.093288
-9844.376365
-9851.830026
-9856.346308
-9858.817918
-9859.702962
-9859.235091
-9857.511982
-9854.532428
-9850.206001
-9844.341985
-9836.614012
-9826.484249
-9813.044218
-9794.653202
-9767.985002
-9724.863382
-9637.978786
-9372.585044
-5878.191681
-5361.862289
-4810.481838
-4236.24842
-3643.757788
-3030.549627
-2387.743363
-1701.346525
-966.0349601
-6170.720163
-5608.145886
-5014.109165
-4406.180571
-3791.400552
-3169.817105
-2538.262571
-1896.486934
-1265.426061
-6488.032553
-5867.431194
-5223.477098
-4578.94372
-3941.854574
-3313.205099
-2693.005771
-2087.199439
-1520.177531
-6833.118503
-6136.367083
-5433.084384
-4748.630323
-4088.820613
-3453.10079
-2841.800661
-2261.883643
-1733.633126
-7207.816399
-6408.001558
-5634.910163
-4908.132104
-4225.830995
-3582.904589
-2977.625835
-2415.215659
-1910.372653
-7608.112661
-6668.591817
-5817.595946
-5049.252995
-4346.569195
-3697.150089
-3095.735085
-2544.757205
-2054.034733
-8008.588715
-6892.597745
-5966.123875
-5163.238895
-4445.294572
-3791.556842
-3193.000129
-2649.39687
-2167.10346
-313.7675497
-172.6801397
-119.525603
-90.33398801
-71.29991896
-57.87932836
-48.00645588
-40.53963879
-34.77328054
-30.24164671
-26.6245521
-23.69586249
-21.2927497
-19.29618352
-17.61803375
-16.19229895
-14.96902177
-13.91000593
-12.98576527
-12.17332801
-11.45464321
-10.81541734
-10.24426032
-9.732055142
-9.2714927
-8.856732515
-8.483161802
-8.147232716
-7.846366547
-7.578922817
-7.344238264
-7.142746869
-6.976203183
-6.848051132
-6.764012719
-6.733027782
-6.76879515
-6.892446385
-7.137615205
-7.561344357
-8.272038855
-9.520633661
-12.10497373
-19.82981599
-736.4387135
-483.2980266
-349.1090473
-266.9887251
-211.681892
-172.2363053
-143.0687579
-120.947086
-103.8320207
-90.36362218
-79.60168209
-70.87994529
-63.71763479
-57.76275585
-52.75438331
-48.49691674
-44.84217636
-41.67677868
-38.91313274
-36.48295281
-34.33254572
-32.41936832
-30.70949937
-29.1757717
-27.79639202
-26.55393407
-25.43462381
-24.42785558
-23.52590548
-22.72383668
-22.01961199
-21.4144452
-20.91345435
-20.52673881
-20.27109355
-20.1727295
-20.27168694
-20.62935729
-21.34233134
-22.57069216
-24.603636
-28.03419846
-34.28394672
-47.21823408
-1047.773933
-746.9179709
-558.1201691
-433.0494822
-345.7971391
-282.5324907
-235.3472945
-199.3764772
-171.4500102
-149.4163169
-131.7727636
-117.4479307
-105.6654929
-95.85539096
-87.59407614
-80.56342277
-74.52201641
-69.28484361
-64.70877173
-60.68206304
-57.11674229
-53.94301555
-51.10516836
-48.55852877
-46.26721708
-44.20250372
-42.3416445
-40.66708929
-39.16600642
-37.83011831
-36.6558751
-35.64501246
-34.80558678
-34.15367609
-33.71607425
-33.53452031
-33.67242433
-34.22596486
-35.3435079
-37.26224667
-40.38313825
-45.43403233
-53.82201846
-68.2202732
-1289.233158
-966.2635626
-741.952665
-584.168208
-470.434874
-386.4757266
-323.1950741
-274.6275839
-236.7397953
-206.7344903
-182.6326355
-163.0114284
-146.8340911
-133.3361084
-121.9475417
-112.2390836
-103.8841097
-96.63171326
-90.28736286
-84.69888434
-79.74622553
-75.33396235
-71.38578692
-67.84041167
-64.64851931
-61.77053721
-59.17506364
-56.83779191
-54.74084772
-52.87254424
-51.22759876
-49.80786026
-48.62365215
-47.69596775
-47.05993004
-46.7701495
-46.90902058
-47.59983345
-49.02824872
-51.47895655
-55.40020887
-61.51548416
-70.98578692
-85.46673968
-1480.742038
-1146.628799
-899.5003822
-717.8822144
-583.3087485
-482.2488364
-405.2296417
-345.6591007
-298.915169
-261.7201652
-231.7221557
-207.214204
-186.9440266
-169.9833461
-155.6371473
-143.3799346
-132.8105269
-123.6197669
-115.5672626
-108.4644474
-102.1621531
-96.54150328
-91.50721484
-86.98258966
-82.90575227
-79.22690881
-75.90642512
-72.9134998
-70.22531272
-67.82668246
-65.71030633
-63.87761669
-62.34033747
-61.12301194
-60.26697692
-59.8364367
-59.92758701
-60.68233936
-62.30916348
-65.11475349
-69.55048695
-76.27119879
-86.16971137
-100.2373263
-1632.604673
-1292.626259
-1031.164993
-833.008894
-682.9414736
-568.5235222
-480.3703069
-411.6228769
-357.3178047
-313.8623429
-278.6425831
-249.7426594
-225.7464012
-205.5976214
-188.5014125
-173.853951
-161.1922571
-150.1581119
-140.4719562
-131.9137404
-124.3087786
-117.5173884
-111.4272905
-105.9478626
-101.0057539
-96.54170895
-92.50838541
-88.86882362
-85.59539303
-82.66932298
-80.08095299
-77.83068449
-75.93064443
-74.4073576
-73.30597687
-72.69669537
-72.68408222
-73.4204252
-75.12449276
-78.10666719
-82.79823378
-89.77145451
-99.70649325
-113.2057263
-1750.414479
-1407.601214
-1137.817429
-929.1354979
-768.4888997
-644.4208446
-547.8435954
-471.8803338
-411.4336191
-362.7504568
-323.0659074
-290.3335427
-263.0285056
-240.0056966
-220.3980503
-203.543265
-188.9308187
-176.1637435
-164.9308792
-154.9862823
-146.1338423
-138.2160738
-131.1059718
-124.7007223
-118.9167545
-113.686213
-108.9546523
-104.6793707
-100.8281128
-97.37841976
-94.31789766
-91.64526046
-89.37198344
-87.52490342
-86.15045766
-85.32113892
-85.14460971
-85.77610242
-87.43474388
-90.42308704
-95.1444816
-102.1013889
-111.8349069
-124.7441084
-58.80375871
-101.3290311
-137.9255252
-168.9627994
-195.543165
-218.5635969
-238.6811544
-256.3770388
-272.0125374
-285.8672412
-298.1638337
-309.0841421
-318.7797194
-327.3790079
-334.9923338
-341.7154921
-347.6323977
-352.8170976
-357.3353314
-361.2457661
-364.6009922
-367.4483359
-369.8305333
-371.7862948
-373.3507822
-374.5560143
-375.4312138
-376.0031063
-376.296178
-376.3329018
-376.1339344
-375.7182911
-375.1034993
-374.3057342
-373.3399391
-372.2199318
-370.9585009
-369.5674918
-368.057885
-366.4398663
-364.7228902
-362.9157369
-361.0265642
-359.0629535
-357.0319531
-354.9401169
-352.7935404
-350.5978948
-348.358456
-346.0801338
-343.7674959
-341.4247921
-339.0559749
-336.6647197
-334.2544435
-331.8283221
-329.3893068
-326.940139
-324.4833647
-322.0213475
-319.5562802
-317.090196
-314.6249791
-312.1623738
-309.7039933
-307.251329
-304.805757
-302.3685466
-299.9408669
-297.5237932
-295.1183135
-292.7253339
-290.3456842
-287.9801228
-285.6293414
-283.2939695
-280.9745781
-278.6716842
-276.3857532
-274.1172034
-271.8664083
-269.6336994
-267.4193693
-265.2236743
-263.0468362
-260.8890451
-258.7504617
-256.631219
-254.5314242
-252.4511611
-250.390491
-248.3494549
-246.328075
-244.3263556
-242.3442848
-240.3818354
-238.4389664
-236.5156237
-234.6117412
-232.7272416
-230.8620375
-229.0160319
-227.1891193
-225.381186
-223.592111
-221.8217668
-220.0700196
-218.3367301
-216.621754
-214.9249424
-213.2461423
-211.5851974
-209.9419478
-208.3162308
-206.7078813
-205.116732
-203.5426139
-201.9853561
-200.4447867
-198.9207325
-197.4130199
-195.9214742
-194.4459207
-192.9861841
-191.5420895
-190.1134618
-188.7001262
-187.3019084
-185.9186346
-184.5501316
-183.1962269
-181.856749
-180.5315272
-179.2203919
-177.9231744
-176.6397074
-175.3698248
-174.1133614
-172.8701539
-171.6400399
-170.4228586
-169.2184507
-168.0266582
-166.8473247
-165.6802954
-164.5254169
-163.3825374
-162.2515069
-161.1321768
-160.0244002
-158.9280317
-157.8429278
-156.7689463
-155.7059471
-154.6537915
-153.6123424
-152.5814645
-151.5610243
-150.5508899
-149.5509309
-148.5610188
-147.5810268
-146.6108297
-145.6503039
-144.6993277
-143.7577808
-142.8255446
-141.9025022
-140.9885381
-140.0835385
-139.1873909
-138.2999846
-137.42121
-136.5509591
-135.6891252
-134.835603
-133.9902883
-133.1530785
-132.3238723
-131.5025693
-130.689071
-129.8832796
-129.0850992
-128.2944347
-127.5111929
-126.7352816
-125.96661
-125.2050887
-124.4506297
-123.7031463
-122.9625529
-122.2287655
-121.501701
-120.7812776
-120.0674145
-119.3600323
-118.6590525
-117.9643976
-117.2759913
-116.5937585
-115.9176248
-115.247517
-114.5833632
-113.9250923
-113.272634
-112.6259193
-111.9848802
-111.3494492
-110.71956
-110.0951471
-109.4761458
-108.8624924
-108.2541237
-107.6509777
-107.052993
-106.4601094
-105.8722672
-105.2894076
-104.7114731
-104.1384067
-103.5701523
-103.006655
-102.4478608
-101.8937166
-101.3441705
-100.7991718
-100.2586708
-99.72261906
-99.19096907
-98.66367418
-98.14068838
-97.62196586
-97.10746072
-96.5971267
-96.09091678
-95.58878322
-95.09067764
-94.59655134
-94.10635602
-93.62004451
-93.13757169
-92.65889516
-92.18397573
-91.71277726
-91.24526597
-90.78140914
-90.32117339
-89.86452298
-89.41141859
-88.96181691
-88.51567152
-88.0729349
-87.63356112
-87.19750867
-86.76474236
-86.33523365
-85.90895912
-85.48589741
-85.06602555
-84.64931594
-84.23573533
-83.82524595
-83.41780865
-83.01338667
-82.61194812
-82.21346626
-81.81791719
-81.42527616
-81.03551446
-80.64859865
-80.26449268
-79.88316201
-79.50457765
-79.1287179
-78.75556682
-78.3851101
-78.01733032
-77.65220409
-77.28970213
-76.92979174
-76.57243989
-76.21761517
-75.86528811
-75.51543049
-75.16801476
-74.82301424
-74.48040381
-74.14016061
-73.80226418
-73.46669533
-73.13343463
-72.80246141
-72.4737546
-72.14729477
-71.82306571
-71.50105454
-71.1812496
-70.86363794
-70.54820457
-70.23492558
-69.92375324
-69.61461314
-69.30740893
-69.00202326
-68.69833545
-68.39631584
-68.08007624
-67.73275642
-67.35166919
-66.93434649
-66.47809564
-65.98007653
-65.43703581
-64.84549283
-64.20144606
-63.50065694
-62.73874443
-61.91146888
-61.01461139
-60.04449506
-58.99763422
-57.87098382
-56.66206107
-55.36864445
-53.98937052
-52.52336646
-50.97068299
-49.33263821
-47.61133813
-45.81102204
-43.9370426
-41.99701176
-40.00057675
-37.95965782
-35.88872216
-33.80536482
-31.72984548
-29.68692685
-27.7048736
-25.81820232
-24.06727246
-22.50201802
-21.18341626
-20.18977818
-19.62310987
-76.45949299
-110.6769791
-142.9058062
-171.6683724
-197.0301204
-219.3850787
-239.1387982
-256.640309
-272.1783031
-285.9911013
-298.2773399
-309.2046138
-318.9159912
-327.5348629
-335.1685826
-341.9112434
-347.845836
-353.0459581
-357.577188
-361.4982032
-364.8617024
-367.715173
-370.1015361
-372.0596945
-373.6249996
-374.8296513
-375.7030417
-376.2720512
-376.5613058
-376.5934034
-376.3891129
-375.9675498
-375.3463325
-374.5417176
-373.5687214
-372.4412261
-371.1720767
-369.7731676
-368.2555226
-366.6293658
-364.9041866
-363.0887967
-361.1913815
-359.219547
-357.1803626
-355.0804
-352.9257705
-350.7221584
-348.4748521
-346.1887717
-343.8684948
-341.5182788
-339.1420829
-336.7435878
-334.3262142
-331.8931408
-329.4473211
-326.9914983
-324.5282197
-322.0598499
-319.5885824
-317.1164505
-314.645338
-312.1769882
-309.713013
-307.2549016
-304.8040285
-302.3616605
-299.9289646
-297.5070141
-295.0967947
-292.6992106
-290.3150895
-287.9451878
-285.5901953
-283.2507393
-280.9273888
-278.6206584
-276.3310114
-274.0588632
-271.804585
-269.5685057
-267.350915
-265.1520664
-262.972179
-260.8114402
-258.6700079
-256.5480125
-254.4455588
-252.3627279
-250.299579
-248.2561509
-246.2324634
-244.228519
-242.2443036
-240.2797882
-238.3349299
-236.4096727
-234.5039485
-232.6176784
-230.750773
-228.9031335
-227.0746525
-225.2652146
-223.4746969
-221.7029701
-219.9498988
-218.2153418
-216.4991532
-214.8011825
-213.1212752
-211.4592731
-209.8150149
-208.1883365
-206.5790714
-204.9870509
-203.4121043
-201.8540598
-200.312744
-198.7879827
-197.2796007
-195.7874225
-194.311272
-192.850973
-191.4063495
-189.9772252
-188.5634246
-187.1647722
-185.7810933
-184.4122139
-183.0579605
-181.7181608
-180.3926432
-179.0812373
-177.7837738
-176.5000844
-175.2300022
-173.9733616
-172.7299983
-171.4997494
-170.2824533
-169.07795
-167.8860811
-166.7066893
-165.5396193
-164.3847172
-163.2418305
-162.1108086
-160.9915025
-159.8837645
-158.7874489
-157.7024115
-156.6285098
-155.565603
-154.513552
-153.4722192
-152.4414688
-151.4211669
-150.4111811
-149.4113805
-148.4216365
-147.4418215
-146.4718101
-145.5114785
-144.5607044
-143.6193674
-142.6873485
-141.7645306
-140.850798
-139.9460367
-139.0501342
-138.1629793
-137.2844625
-136.4144757
-135.552912
-134.699666
-133.8546335
-133.0177117
-132.1887988
-131.3677947
-130.5546002
-129.7491177
-128.9512506
-128.1609038
-127.3779836
-126.6023976
-125.8340548
-125.0728656
-124.3187417
-123.5715961
-122.8313433
-122.0978989
-121.3711799
-120.6511043
-119.9375913
-119.2305612
-118.5299355
-117.8356367
-117.1475882
-116.4657147
-115.7899418
-115.1201963
-114.4564059
-113.7984995
-113.1464068
-112.5000587
-111.859387
-111.2243243
-110.5948042
-109.9707611
-109.3521303
-108.7388478
-108.1308506
-107.5280764
-106.9304638
-106.3379524
-105.7504827
-105.167996
-104.5904348
-104.0177421
-103.4498622
-102.8867402
-102.3283222
-101.7745552
-101.2253871
-100.6807672
-100.1406453
-99.60497273
-99.07370143
-98.54678424
-98.02417461
-97.50582626
-96.99169299
-96.48172836
-95.97588552
-95.47411712
-94.97637544
-94.4826127
-93.99278152
-93.50683565
-93.02473052
-92.54642385
-92.07187596
-91.60104957
-91.13390926
-90.67042049
-90.21054826
-89.75425589
-89.30150418
-88.85225114
-88.40645274
-87.96406436
-87.52504281
-87.08934828
-86.65694573
-86.22780499
-85.80189967
-85.37920502
-84.95969529
-84.54334175
-84.13011189
-83.71997019
-83.31288029
-82.9088074
-82.50771994
-82.10958976
-81.71439069
-81.32209609
-80.932677
-80.54610169
-80.162337
-79.78135106
-79.40311587
-79.02760834
-78.65480923
-78.28470049
-77.91726212
-77.55247016
-77.19029662
-76.83071095
-76.473682
-76.11917942
-75.76717417
-75.41763826
-75.07054458
-74.72586703
-74.3835809
-74.04366334
-73.70609328
-73.37085078
-73.03791618
-72.70726961
-72.37889167
-72.05276492
-71.72887523
-71.40721241
-71.08776942
-70.77054038
-70.45551677
-70.14267807
-69.83197717
-69.52332948
-69.21660492
-68.91163752
-68.6082939
-68.30648829
-67.99019032
-67.6428292
-67.26165294
-66.84435508
-66.38832733
-65.89075849
-65.34844621
-64.75782536
-64.11483058
-63.41512723
-62.65427389
-61.82797784
-60.93207242
-59.96288977
-58.91701488
-57.79145463
-56.58374053
-55.29168603
-53.91391689
-52.44956187
-50.89866294
-49.2625273
-47.54325825
-45.74509277
-43.87335953
-41.93570307
-39.94170679
-37.90333577
-35.83499446
-33.75428091
-31.68142403
-29.64114515
-27.66168205
-25.77749439
-24.02888878
-22.46572755
-21.14889983
-20.15660444
-19.59070757
-92.24250187
-120.7953139
-149.2288636
-175.6913021
-199.6817364
-221.2140582
-240.4686717
-257.6639214
-273.0120444
-286.7059521
-298.9168847
-309.7956791
-319.4750384
-328.0718901
-335.6895394
-342.4195404
-348.3432972
-353.5334262
-358.054911
-361.966082
-365.3194493
-368.1624109
-370.5378611
-372.4847141
-374.0383558
-375.2310344
-376.0921964
-376.6487772
-376.9254552
-376.9448762
-376.7278526
-376.2935406
-375.659596
-374.8423107
-373.8567323
-372.7167702
-371.4352918
-370.0242099
-368.4945638
-366.8565912
-365.1197939
-363.292995
-361.3843898
-359.4015922
-357.3516772
-355.2412204
-353.0763355
-350.8627083
-348.6056285
-346.3100172
-343.9804522
-341.6211909
-339.2361914
-336.829132
-334.4034306
-331.9622624
-329.5085768
-327.0451135
-324.5744161
-322.0988457
-319.6205919
-317.1416844
-314.6640029
-312.1892861
-309.7191412
-307.2550526
-304.7983896
-302.3504143
-299.9122888
-297.4850819
-295.0697749
-292.6672681
-290.278385
-287.9038784
-285.5444344
-283.2006766
-280.8731704
-278.5624267
-276.2689052
-273.9930179
-271.735132
-269.4955726
-267.274626
-265.0725417
-262.8895353
-260.7257905
-258.5814618
-256.456676
-254.3515347
-252.2661161
-250.2004763
-248.1546513
-246.1286582
-244.1224971
-242.1361513
-240.1695895
-238.2227665
-236.295624
-234.3880918
-232.5000887
-230.6315231
-228.7822942
-226.9522924
-225.1414002
-223.3494929
-221.5764389
-219.8221009
-218.0863359
-216.368996
-214.6699289
-212.9889783
-211.3259843
-209.680784
-208.0532115
-206.4430989
-204.8502758
-203.2745703
-201.7158089
-200.173817
-198.6484189
-197.1394384
-195.6466985
-194.1700219
-192.7092315
-191.2641498
-189.8345997
-188.4204045
-187.0213878
-185.6373739
-184.2681877
-182.9136549
-181.5736023
-180.2478575
-178.9362492
-177.6386071
-176.3547625
-175.0845474
-173.8277956
-172.5843421
-171.3540232
-170.1366766
-168.9321418
-167.7402595
-166.5608721
-165.3938234
-164.2389589
-163.0961256
-161.9651724
-160.8459496
-159.738309
-158.6421043
-157.5571909
-156.4834257
-155.4206674
-154.3687763
-153.3276145
-152.2970458
-151.2769355
-150.267151
-149.267561
-148.2780363
-147.2984491
-146.3286735
-145.3685853
-144.418062
-143.4769829
-142.5452287
-141.6226821
-140.7092271
-139.8047496
-138.909137
-138.0222779
-137.1440628
-136.2743833
-135.4131326
-134.560205
-133.7154964
-132.8789035
-132.0503248
-131.2296596
-130.4168087
-129.611674
-128.8141589
-128.0241678
-127.2416068
-126.4663832
-125.6984056
-124.9375843
-124.1838308
-123.4370579
-122.6971799
-121.9641125
-121.2377723
-120.5180773
-119.8049468
-119.0983009
-118.398061
-117.7041494
-117.0164894
-116.3350057
-115.6596236
-114.9902697
-114.3268719
-113.6693586
-113.0176598
-112.3717062
-111.7314294
-111.0967623
-110.4676381
-109.8439914
-109.2257573
-108.6128716
-108.0052713
-107.402894
-106.8056783
-106.2135636
-105.6264905
-105.0444004
-104.4672357
-103.8949398
-103.327457
-102.7647326
-102.2067126
-101.6533441
-101.1045752
-100.5603545
-100.020632
-99.48535846
-98.95448538
-98.42796518
-97.90575088
-97.38779584
-96.87405363
-96.36447777
-95.85902155
-95.35763798
-94.86027991
-94.36690024
-93.87745231
-93.39189049
-92.91017058
-92.43225031
-91.95808952
-91.48765005
-91.02089523
-90.55778919
-90.09829579
-89.64237775
-89.18999607
-88.74110983
-88.29567677
-87.85365444
-87.41500159
-86.97967964
-86.54765357
-86.11889205
-85.69336657
-85.27104998
-84.85191456
-84.4359307
-84.02306632
-83.61328742
-83.2065594
-82.8028488
-82.40212431
-82.00435695
-81.60951914
-81.21758316
-80.82851995
-80.44229892
-80.05888879
-79.67825938
-79.30038325
-78.9252363
-78.55279709
-78.18304501
-77.81595823
-77.45151229
-77.08967991
-76.73043192
-76.3737385
-76.01957019
-75.66789846
-75.31869564
-74.97193499
-74.62759081
-74.28563871
-73.94605578
-73.60882064
-73.27391295
-72.94131297
-72.61100144
-72.28296013
-71.95717313
-71.63362827
-71.31231825
-70.99324081
-70.67639683
-70.36178436
-70.04938617
-69.73915325
-69.43098983
-69.12473309
-68.82015044
-68.5171005
-68.21558436
-67.89937751
-67.55207153
-67.17091774
-66.75372861
-66.29800398
-65.80095705
-65.25939887
-64.66969598
-64.02771938
-63.32905649
-62.56921885
-61.74387941
-60.84891761
-59.88068235
-58.83581871
-57.71137867
-56.50490774
-55.2142455
-53.83801104
-52.37533197
-50.82624146
-49.1920402
-47.47482375
-45.67883265
-43.80936784
-41.87410842
-39.88257316
-37.84677206
-35.78104598
-33.70299679
-31.63282104
-29.59519986
-27.61834274
-25.73665332
-23.99038438
-22.42932716
-21.11428192
-20.12333547
-19.55821329
-106.3159793
-130.9602106
-156.315988
-180.672366
-203.2861155
-223.9259092
-242.5968181
-259.4035752
-274.4870887
-287.9957702
-300.0729721
-310.8518921
-320.4539517
-328.9887806
-336.5549088
-343.2407309
-349.1255367
-354.2805136
-358.7696707
-362.6506692
-365.9755558
-368.7914039
-371.140878
-373.0627282
-374.5922245
-375.7615327
-376.6000411
-377.1346419
-377.3899788
-377.3886685
-377.1514984
-376.6976047
-376.0446282
-375.2088494
-374.2053061
-373.0478978
-371.7494804
-370.321954
-368.7763449
-367.1228795
-365.3710497
-363.5296701
-361.6069282
-359.6104294
-357.5472388
-355.4239215
-353.2465803
-351.0208905
-348.752132
-346.4452172
-344.1047157
-341.7348765
-339.3396486
-336.9227011
-334.4874417
-332.0370357
-329.5744226
-327.1023328
-324.6233012
-322.1396807
-319.6536533
-317.1672409
-314.6823152
-312.2006073
-309.723716
-307.2531179
-304.7901741
-302.3361392
-299.892168
-297.4593221
-295.0385767
-292.6308254
-290.2368863
-287.8575065
-285.4933666
-283.1450851
-280.8132224
-278.4982844
-276.200726
-273.9209541
-271.6593313
-269.416178
-267.1917756
-264.9863689
-262.800169
-260.6333551
-258.4860773
-256.3584583
-254.2505959
-252.1625643
-250.0944162
-248.0461841
-246.0178821
-244.009507
-242.0210395
-240.0524453
-238.1036766
-236.1746724
-234.26536
-232.3756557
-230.5054654
-228.6546859
-226.8232053
-225.0109036
-223.2176539
-221.4433224
-219.6877695
-217.9508501
-216.2324143
-214.5323078
-212.8503722
-211.1864459
-209.5403641
-207.9119591
-206.3010613
-204.7074988
-203.131098
-201.5716839
-200.0290804
-198.5031104
-196.9935964
-195.5003599
-194.0232226
-192.5620059
-191.1165313
-189.6866205
-188.2720957
-186.8727794
-185.4884949
-184.1190661
-182.7643178
-181.4240758
-180.0981668
-178.7864187
-177.4886604
-176.2047222
-174.9344356
-173.6776333
-172.4341498
-171.2038205
-169.9864827
-168.7819749
-167.5901373
-166.4108115
-165.2438409
-164.0890703
-162.9463462
-161.8155166
-160.6964314
-159.588942
-158.4929014
-157.4081645
-156.3345876
-155.272029
-154.2203485
-153.1794077
-152.1490698
-151.1291999
-150.1196647
-149.1203326
-148.1310739
-147.1517606
-146.1822662
-145.2224663
-144.272238
-143.3314602
-142.4000136
-141.4777805
-140.5646449
-139.6604924
-138.7652101
-137.8786868
-137.0008128
-136.1314796
-135.2705802
-134.4180091
-133.5736617
-132.737435
-131.9092269
-131.0889368
-130.276465
-129.4717134
-128.6745848
-127.8849836
-127.1028154
-126.3279872
-125.5604074
-124.7999861
-124.0466344
-123.3002653
-122.5607927
-121.8281321
-121.1022004
-120.3829154
-119.6701961
-118.9639628
-118.2641366
-117.5706398
-116.8833956
-116.2023283
-115.5273634
-114.8584273
-114.1954475
-113.5383527
-112.8870726
-112.2415379
-111.6016804
-110.9674325
-110.3387279
-109.7155007
-109.0976861
-108.4852199
-107.8780388
-107.2760804
-106.6792831
-106.0875864
-105.5009308
-104.9192578
-104.3425098
-103.7706304
-103.2035642
-102.6412563
-102.0836532
-101.5307018
-100.98235
-100.4385464
-99.89924071
-99.36438321
-98.83392514
-98.3078185
-97.78601593
-97.26847057
-96.75513582
-96.24596522
-95.74091222
-95.23993018
-94.7429724
-94.2499923
-93.76094377
-93.27578157
-92.79446174
-92.3169419
-91.8431815
-91.37314165
-90.90678475
-90.44407395
-89.98497235
-89.52944231
-89.07744507
-88.62894055
-88.18388786
-87.74224614
-87.30397554
-86.86903832
-86.4373995
-86.00902686
-85.58389039
-85.16196121
-84.74321022
-84.32760713
-83.9151201
-83.50571604
-83.09936157
-82.69602407
-82.29567249
-81.89827735
-81.50381026
-81.11224287
-80.72354614
-80.33769024
-79.95464512
-79.57438164
-79.19687267
-78.82209339
-78.45002083
-78.08063267
-77.71390577
-77.3498152
-76.98833411
-76.62943418
-76.27308653
-75.91926241
-75.56793375
-75.21907323
-74.87265442
-74.52865195
-74.18704159
-73.84780046
-73.51090698
-73.17634061
-72.84408165
-72.51411127
-72.18641205
-71.86096924
-71.53777224
-71.21681626
-70.89810309
-70.58163911
-70.2674272
-69.95545055
-69.64565386
-69.33793162
-69.03210476
-68.72787005
-68.4250126
-68.12368367
-67.80758782
-67.46040284
-67.07941763
-66.66247068
-66.2071531
-65.71069512
-65.16989736
-64.58107329
-63.94004603
-63.24235163
-62.48347508
-61.65907137
-60.7650599
-59.7978057
-58.75399977
-57.63072886
-56.42554972
-55.13631965
-53.76165557
-52.30068227
-50.75342502
-49.12118326
-47.40604032
-45.61224652
-43.74507139
-41.81223102
-39.82317828
-37.78996866
-35.72687821
-33.65151363
-31.58403742
-29.5490917
-27.57485626
-25.69567957
-23.95175967
-22.39281714
-21.07956281
-20.0899715
-19.52562717
-118.958391
-140.8491558
-163.7900456
-186.3282787
-207.6549171
-227.400156
-245.4467147
-261.8103209
-276.5716676
-289.8395344
-301.7313603
-312.363329
-321.8455848
-330.2801899
-337.7605248
-344.3714242
-350.1896758
-355.2846794
-359.7191479
-363.5497895
-366.8279383
-369.6001251
-371.9085926
-373.7917591
-375.2846319
-376.419169
-377.2245908
-377.7276504
-377.9528715
-377.9227642
-377.6580226
-377.1777023
-376.4993765
-375.6392688
-374.6123671
-373.4325241
-372.11255
-370.6643004
-369.0987603
-367.4261191
-365.6558367
-363.7966999
-361.8568708
-359.8439298
-357.7649171
-355.6263723
-353.4343737
-351.1945738
-348.9122321
-346.5922423
-344.2391573
-341.8572097
-339.450332
-337.0221763
-334.5761333
-332.1153514
-329.6427542
-327.1610571
-324.6727813
-322.1802673
-319.6856851
-317.1910449
-314.6982071
-312.2088911
-309.7246846
-307.2470525
-304.7773453
-302.3168069
-299.8665821
-297.4277235
-295.001197
-292.5878885
-290.1886081
-287.8040955
-285.4350244
-283.0820066
-280.745596
-278.4262921
-276.1245438
-273.8407518
-271.5752729
-269.3284216
-267.1004733
-264.8916676
-262.7022098
-260.5322738
-258.3820045
-256.2515199
-254.1409127
-252.050253
-249.9795893
-247.92895
-245.8983457
-243.8877695
-241.8971989
-239.9265963
-237.9759109
-236.0450786
-234.1340239
-232.2426602
-230.3708907
-228.5186094
-226.6857018
-224.8720453
-223.0775103
-221.3019608
-219.5452546
-217.8072444
-216.0877779
-214.3866986
-212.7038461
-211.0390566
-209.3921635
-207.7629972
-206.1513861
-204.5571566
-202.9801335
-201.4201401
-199.8769988
-198.350531
-196.8405576
-195.3468989
-193.869375
-192.4078063
-190.9620129
-189.5318153
-188.1170346
-186.7174922
-185.3330102
-183.9634116
-182.6085202
-181.2681608
-179.9421592
-178.6303423
-177.3325383
-176.0485765
-174.7782877
-173.5215039
-172.2780587
-171.0477869
-169.8305248
-168.6261106
-167.4343835
-166.2551846
-165.0883567
-163.9337439
-162.791192
-161.6605487
-160.5416631
-159.434386
-158.3385701
-157.2540695
-156.1807401
-155.1184397
-154.0670276
-153.0263649
-151.9963143
-150.9767404
-149.9675096
-148.9684897
-147.9795506
-147.000564
-146.031403
-145.0719428
-144.1220603
-143.181634
-142.2505444
-141.3286736
-140.4159053
-139.5121252
-138.6172201
-137.7310788
-136.8535915
-135.9846496
-135.1241462
-134.2719755
-133.428033
-132.5922153
-131.7644205
-130.9445474
-130.1324963
-129.3281687
-128.5314672
-127.7422957
-126.9605596
-126.1861657
-125.4190219
-124.6590381
-123.9061254
-123.1601964
-122.4211651
-121.688947
-120.9634586
-120.244618
-119.532344
-118.8265569
-118.1271776
-117.4341283
-116.7473322
-116.0667134
-115.3921971
-114.7237097
-114.0611786
-113.4045323
-112.7537007
-112.1086142
-111.4692048
-110.8354048
-110.2071479
-109.5843682
-108.9670008
-108.3549813
-107.7482463
-107.1467333
-106.5503806
-105.9591276
-105.3729148
-104.7916837
-104.2153769
-103.6439382
-103.0773122
-102.5154444
-101.9582811
-101.4057694
-100.8578571
-100.3144927
-99.7756254
-99.24120531
-98.71118327
-98.18551092
-97.66414065
-97.14702537
-96.63411843
-96.12537344
-95.62074406
-95.12018394
-94.62364677
-94.13108638
-93.64245702
-93.15771372
-92.67681258
-92.1997111
-91.72636835
-91.25674485
-90.7908023
-90.32850319
-89.86981009
-89.41468519
-88.96308999
-88.51498512
-88.07033072
-87.62908709