/*--------------------------------*- C++ -*----------------------------------*\
| =========                 |                                                 |
| \\      /  F ield         | OpenFOAM: The Open Source CFD Toolbox           |
|  \\    /   O peration     | Version:  2406                                  |
|   \\  /    A nd           | Website:  www.openfoam.com                      |
|    \\/     M anipulation  |                                                 |
\*---------------------------------------------------------------------------*/
FoamFile
{
    version     2.0;
    format      ascii;
    arch        "LSB;label=32;scalar=64";
    class       volScalarField;
    location    "0.0001";
    object      voltExt;
}
// * * * * * * * * * * * * * * * * * * * * * * * * * * * * * * * * * * * * * //

dimensions      [1 2 -3 0 0 -1 0];

internalField   nonuniform List<scalar> 
61540
(
-4.047538469e-11
-6.617134719e-11
-1.186202655e-10
-1.978370299e-10
-2.91986859e-10
-3.868632675e-10
-4.742957011e-10
-5.507958339e-10
-6.151172566e-10
-6.67190755e-10
-7.114365696e-10
-7.586376402e-10
-8.188144876e-10
-9.062084635e-10
-4.11103478e-11
-6.711765959e-11
-1.200264674e-10
-1.996226137e-10
-2.939892214e-10
-3.890874139e-10
-4.769075145e-10
-5.540345695e-10
-6.192437223e-10
-6.724582997e-10
-7.181602826e-10
-7.676648031e-10
-8.322283584e-10
-9.258961759e-10
-4.174331359e-11
-6.805736498e-11
-1.214128589e-10
-2.013635584e-10
-2.959070611e-10
-3.911559038e-10
-4.792326168e-10
-5.567579347e-10
-6.224851838e-10
-6.762894034e-10
-7.226316811e-10
-7.72927233e-10
-8.383660972e-10
-9.313528448e-10
-4.237425861e-11
-6.899041812e-11
-1.227794115e-10
-2.030599163e-10
-2.977402766e-10
-3.930677616e-10
-4.812676684e-10
-5.589571207e-10
-6.248212146e-10
-6.786445474e-10
-7.24794847e-10
-7.74403821e-10
-8.376168854e-10
-9.251365204e-10
-8.570370989e-10
-7.165185261e-10
-6.150081772e-10
-5.312541112e-10
-4.581597207e-10
-3.926011779e-10
-3.332098995e-10
-2.796463021e-10
-2.322158609e-10
-8.902947248e-10
-7.425211766e-10
-6.350677087e-10
-5.486821973e-10
-4.748172682e-10
-4.095339913e-10
-3.510211113e-10
-2.986024177e-10
-2.522344617e-10
-9.001314315e-10
-7.557663076e-10
-6.484611881e-10
-5.62148712e-10
-4.887595315e-10
-4.243245353e-10
-3.669041178e-10
-3.156441121e-10
-2.702781572e-10
-8.916935728e-10
-7.572854397e-10
-6.552124352e-10
-5.715262048e-10
-4.998686889e-10
-4.368956391e-10
-3.808378949e-10
-3.3082087e-10
-2.864680396e-10
-1.90996261e-10
-1.565559854e-10
-1.288903664e-10
-1.070240482e-10
-8.984189532e-11
-7.632069779e-11
-6.561583097e-11
-5.70664916e-11
-5.016919262e-11
-4.454466009e-11
-3.990798888e-11
-3.604471971e-11
-3.279262974e-11
-3.002823116e-11
-2.765687321e-11
-2.560543368e-11
-2.381691291e-11
-2.224652447e-11
-2.085885701e-11
-1.962569107e-11
-1.852430784e-11
-1.753629341e-11
-1.664671081e-11
-1.584340878e-11
-1.511641859e-11
-1.445755129e-11
-1.386018639e-11
-1.331909967e-11
-1.283026902e-11
-1.239075746e-11
-1.199875332e-11
-1.165370319e-11
-1.135645151e-11
-1.110943815e-11
-1.091708295e-11
-1.078640742e-11
-1.072786114e-11
-1.075634566e-11
-1.089246096e-11
-1.116384197e-11
-1.160595167e-11
-1.226072685e-11
-1.317005593e-11
-1.436052944e-11
-2.116519792e-10
-1.771767576e-10
-1.488530744e-10
-1.259111367e-10
-1.074452076e-10
-9.258503829e-11
-8.057871722e-11
-7.081341317e-11
-6.280550454e-11
-5.617963442e-11
-5.064639409e-11
-4.598285659e-11
-4.201700763e-11
-3.861562132e-11
-3.567490475e-11
-3.31134027e-11
-3.086674684e-11
-2.888379157e-11
-2.71236434e-11
-2.555330329e-11
-2.414591008e-11
-2.287953803e-11
-2.173628852e-11
-2.070145017e-11
-1.976280712e-11
-1.891025262e-11
-1.813558604e-11
-1.743226062e-11
-1.679509688e-11
-1.62201556e-11
-1.570481943e-11
-1.524791958e-11
-1.484979769e-11
-1.451242678e-11
-1.42397675e-11
-1.4038347e-11
-1.391792519e-11
-1.389220085e-11
-1.397958339e-11
-1.420386046e-11
-1.459410097e-11
-1.518247065e-11
-1.599807215e-11
-1.705544527e-11
-2.303222692e-10
-1.959367707e-10
-1.671878302e-10
-1.434441512e-10
-1.239577631e-10
-1.079861621e-10
-9.486370634e-11
-8.402866037e-11
-7.502373546e-11
-6.748413889e-11
-6.112173518e-11
-5.5709902e-11
-5.107060543e-11
-4.706368857e-11
-4.357826132e-11
-4.052611203e-11
-3.783676819e-11
-3.545366474e-11
-3.333105706e-11
-3.143163199e-11
-2.972481116e-11
-2.818551635e-11
-2.679310585e-11
-2.553042466e-11
-2.438313253e-11
-2.333935409e-11
-2.238940972e-11
-2.152544631e-11
-2.074111444e-11
-2.003149206e-11
-1.939318323e-11
-1.882437254e-11
-1.832479807e-11
-1.789584074e-11
-1.754087419e-11
-1.726576779e-11
-1.707935795e-11
-1.699386357e-11
-1.702529403e-11
-1.719365251e-11
-1.752230115e-11
-1.803548511e-11
-1.875296954e-11
-1.9681594e-11
-2.471717415e-10
-2.129917306e-10
-1.840084545e-10
-1.596893188e-10
-1.394071441e-10
-1.225254452e-10
-1.084567024e-10
-9.669026368e-11
-8.679875552e-11
-7.843258287e-11
-7.130948582e-11
-6.520320887e-11
-5.993293996e-11
-5.535405807e-11
-5.135053681e-11
-4.782901841e-11
-4.47141494e-11
-4.194479011e-11
-3.947097916e-11
-3.725165587e-11
-3.52529993e-11
-3.344708955e-11
-3.18107279e-11
-3.032448784e-11
-2.897209709e-11
-2.774005716e-11
-2.66172651e-11
-2.559457683e-11
-2.466451142e-11
-2.382121547e-11
-2.30605241e-11
-2.237992181e-11
-2.177846011e-11
-2.125684958e-11
-2.081779001e-11
-2.04663604e-11
-2.021029598e-11
-2.00601747e-11
-2.002956712e-11
-2.013493039e-11
-2.039467832e-11
-2.08267239e-11
-2.144401885e-11
-2.224843915e-11
-1.582751434e-11
-1.751066084e-11
-1.930823281e-11
-2.113030477e-11
-2.290859277e-11
-2.459876058e-11
-2.617597386e-11
-2.762910423e-11
-2.895581043e-11
-3.015898607e-11
-3.124440734e-11
-3.221926524e-11
-3.309128855e-11
-3.386823431e-11
-3.4557598e-11
-3.516645659e-11
-3.570139753e-11
-3.616850354e-11
-3.657336815e-11
-3.692112306e-11
-3.721646716e-11
-3.746369583e-11
-3.766673337e-11
-3.782916909e-11
-3.795429329e-11
-3.804512827e-11
-3.810445183e-11
-3.813481493e-11
-3.813855815e-11
-3.811783014e-11
-3.807460824e-11
-3.801071857e-11
-3.792785221e-11
-3.782757634e-11
-3.771134127e-11
-3.758048655e-11
-3.743624829e-11
-3.727976862e-11
-3.711210603e-11
-3.693424476e-11
-3.674710184e-11
-3.655153144e-11
-3.634832764e-11
-3.613822683e-11
-3.592191108e-11
-3.570001242e-11
-3.547311778e-11
-3.524177365e-11
-3.500648971e-11
-3.476774139e-11
-3.452597147e-11
-3.428159122e-11
-3.403498182e-11
-3.378649605e-11
-3.353646051e-11
-3.328517794e-11
-3.303292951e-11
-3.277997668e-11
-3.25265626e-11
-3.227291324e-11
-3.201923813e-11
-3.176573105e-11
-3.151257087e-11
-3.125992237e-11
-3.100793718e-11
-3.075675486e-11
-3.050650378e-11
-3.025730204e-11
-3.000925828e-11
-2.976247228e-11
-2.951703563e-11
-2.927303217e-11
-2.90305385e-11
-2.878962443e-11
-2.855035338e-11
-2.831278277e-11
-2.807696439e-11
-2.784294478e-11
-2.761076545e-11
-2.738046329e-11
-2.715207078e-11
-2.692561628e-11
-2.670112433e-11
-2.647861589e-11
-2.625810862e-11
-2.603961714e-11
-2.582315328e-11
-2.560872629e-11
-2.539634307e-11
-2.518600838e-11
-2.497772497e-11
-2.477149374e-11
-2.456731389e-11
-2.436518303e-11
-2.416509726e-11
-2.396705128e-11
-2.37710385e-11
-2.357705109e-11
-2.338508009e-11
-2.319511546e-11
-2.300714622e-11
-2.282116045e-11
-2.263714544e-11
-2.245508772e-11
-2.227497311e-11
-2.209678686e-11
-2.192051363e-11
-2.174613761e-11
-2.157364251e-11
-2.140301169e-11
-2.123422813e-11
-2.106727452e-11
-2.09021333e-11
-2.073878665e-11
-2.05772166e-11
-2.041740499e-11
-2.025933354e-11
-2.010298387e-11
-1.994833751e-11
-1.979537592e-11
-1.964408056e-11
-1.949443285e-11
-1.93464142e-11
-1.920000607e-11
-1.905518994e-11
-1.891194734e-11
-1.877025987e-11
-1.863010918e-11
-1.849147702e-11
-1.835434525e-11
-1.821869582e-11
-1.808451077e-11
-1.795177232e-11
-1.782046276e-11
-1.769056453e-11
-1.756206022e-11
-1.743493257e-11
-1.730916442e-11
-1.718473883e-11
-1.706163896e-11
-1.693984815e-11
-1.68193499e-11
-1.670012789e-11
-1.658216592e-11
-1.6465448e-11
-1.634995829e-11
-1.623568113e-11
-1.612260102e-11
-1.601070263e-11
-1.589997083e-11
-1.579039063e-11
-1.568194723e-11
-1.557462601e-11
-1.546841253e-11
-1.53632925e-11
-1.525925183e-11
-1.51562766e-11
-1.505435306e-11
-1.495346766e-11
-1.485360701e-11
-1.475475791e-11
-1.465690736e-11
-1.456004252e-11
-1.446415076e-11
-1.436921962e-11
-1.427523686e-11
-1.418219042e-11
-1.409006841e-11
-1.399885915e-11
-1.390855114e-11
-1.381913305e-11
-1.373059372e-11
-1.364292215e-11
-1.355610748e-11
-1.3470139e-11
-1.338500611e-11
-1.330069832e-11
-1.321720526e-11
-1.313451663e-11
-1.305262224e-11
-1.2971512e-11
-1.289117591e-11
-1.281160407e-11
-1.273278673e-11
-1.265471427e-11
-1.257737721e-11
-1.250076624e-11
-1.242487222e-11
-1.234968618e-11
-1.227519935e-11
-1.22014031e-11
-1.212828897e-11
-1.205584862e-11
-1.198407385e-11
-1.191295655e-11
-1.184248871e-11
-1.177266241e-11
-1.170346979e-11
-1.16349031e-11
-1.156695467e-11
-1.149961694e-11
-1.143288247e-11
-1.136674397e-11
-1.130119426e-11
-1.123622629e-11
-1.117183315e-11
-1.110800803e-11
-1.104474421e-11
-1.098203503e-11
-1.091987392e-11
-1.085825431e-11
-1.079716972e-11
-1.073661371e-11
-1.067657995e-11
-1.061706217e-11
-1.055805427e-11
-1.049955026e-11
-1.044154432e-11
-1.038403079e-11
-1.032700411e-11
-1.027045884e-11
-1.021438965e-11
-1.01587912e-11
-1.010365821e-11
-1.004898543e-11
-9.994767607e-12
-9.94099953e-12
-9.887676057e-12
-9.834792122e-12
-9.782342766e-12
-9.730323149e-12
-9.678728537e-12
-9.627554295e-12
-9.576795859e-12
-9.526448702e-12
-9.476508306e-12
-9.426970147e-12
-9.377829686e-12
-9.329082381e-12
-9.280723718e-12
-9.232749242e-12
-9.185154591e-12
-9.137935534e-12
-9.091087972e-12
-9.044607936e-12
-8.998491573e-12
-8.9527351e-12
-8.907334771e-12
-8.862286848e-12
-8.81758758e-12
-8.773233207e-12
-8.729219984e-12
-8.685544205e-12
-8.642202245e-12
-8.599190584e-12
-8.556505809e-12
-8.514144608e-12
-8.472103738e-12
-8.430379993e-12
-8.388970172e-12
-8.347871076e-12
-8.307079508e-12
-8.266592297e-12
-8.226406331e-12
-8.186518567e-12
-8.146926038e-12
-8.10762584e-12
-8.068615102e-12
-8.029890971e-12
-7.991450604e-12
-7.95329118e-12
-7.915409926e-12
-7.877804141e-12
-7.840471194e-12
-7.803408514e-12
-7.766613552e-12
-7.730083738e-12
-7.693816453e-12
-7.657809014e-12
-7.622058694e-12
-7.586562744e-12
-7.551318427e-12
-7.516323046e-12
-7.481573966e-12
-7.447068628e-12
-7.412804564e-12
-7.378779387e-12
-7.344990808e-12
-7.311436652e-12
-7.278114849e-12
-7.245023434e-12
-7.212160572e-12
-7.179524622e-12
-7.14711421e-12
-7.114928327e-12
-7.08296644e-12
-7.051228482e-12
-7.019714442e-12
-6.988423277e-12
-6.957351003e-12
-6.926488872e-12
-6.895823985e-12
-6.86534242e-12
-6.835026449e-12
-6.804855224e-12
-6.774843386e-12
-6.7434044e-12
-6.708865745e-12
-6.670989194e-12
-6.629532388e-12
-6.584242549e-12
-6.534839959e-12
-6.481004167e-12
-6.422369915e-12
-6.358529028e-12
-6.289042661e-12
-6.213470577e-12
-6.131376772e-12
-6.042362654e-12
-5.946060776e-12
-5.842143057e-12
-5.730320847e-12
-5.610351486e-12
-5.48202003e-12
-5.345194053e-12
-5.19978337e-12
-5.045788303e-12
-4.883346128e-12
-4.71265298e-12
-4.534148467e-12
-4.348338857e-12
-4.156019096e-12
-3.958100758e-12
-3.75581465e-12
-3.550556403e-12
-3.344092837e-12
-3.138423823e-12
-2.935999248e-12
-2.739624349e-12
-2.552712559e-12
-2.379260886e-12
-2.224213916e-12
-2.093605985e-12
-1.995190062e-12
-1.939067311e-12
-1.834647521e-11
-1.982463833e-11
-2.14109353e-11
-2.303292074e-11
-2.463181528e-11
-2.616630985e-11
-2.761078499e-11
-2.895160519e-11
-3.018343152e-11
-3.130626514e-11
-3.232333118e-11
-3.323967445e-11
-3.406126903e-11
-3.479446012e-11
-3.544561058e-11
-3.602088249e-11
-3.65261182e-11
-3.696679246e-11
-3.734800459e-11
-3.767448449e-11
-3.795060015e-11
-3.818036847e-11
-3.83674761e-11
-3.851531063e-11
-3.86269947e-11
-3.87054132e-11
-3.875322959e-11
-3.877289516e-11
-3.876665946e-11
-3.873658736e-11
-3.868458189e-11
-3.86124069e-11
-3.852170366e-11
-3.841399897e-11
-3.82907078e-11
-3.815313555e-11
-3.800248417e-11
-3.78398629e-11
-3.766630111e-11
-3.748275939e-11
-3.729013662e-11
-3.708927273e-11
-3.688094903e-11
-3.666588897e-11
-3.644476088e-11
-3.621818292e-11
-3.598672925e-11
-3.575093578e-11
-3.55113041e-11
-3.526830356e-11
-3.502237191e-11
-3.47739155e-11
-3.452331006e-11
-3.427090239e-11
-3.401701293e-11
-3.376193864e-11
-3.350595578e-11
-3.3249322e-11
-3.299227763e-11
-3.273504654e-11
-3.247783645e-11
-3.222083939e-11
-3.196423229e-11
-3.170817777e-11
-3.145282528e-11
-3.119831217e-11
-3.094476485e-11
-3.069229973e-11
-3.044102408e-11
-3.019103664e-11
-2.994242814e-11
-2.969528182e-11
-2.944967379e-11
-2.920567344e-11
-2.896334386e-11
-2.872274215e-11
-2.848391985e-11
-2.824692317e-11
-2.801179337e-11
-2.777856697e-11
-2.754727611e-11
-2.731794875e-11
-2.709060897e-11
-2.686527729e-11
-2.664197093e-11
-2.642070407e-11
-2.620148816e-11
-2.598433213e-11
-2.576924263e-11
-2.555622422e-11
-2.534527954e-11
-2.51364094e-11
-2.492961299e-11
-2.472488788e-11
-2.452223017e-11
-2.432163457e-11
-2.412309444e-11
-2.392660191e-11
-2.373214794e-11
-2.353972242e-11
-2.334931422e-11
-2.316091129e-11
-2.297450077e-11
-2.279006902e-11
-2.260760169e-11
-2.242708384e-11
-2.224849997e-11
-2.207183406e-11
-2.189706968e-11
-2.172418997e-11
-2.155317776e-11
-2.138401556e-11
-2.121668562e-11
-2.105117e-11
-2.088745054e-11
-2.072550893e-11
-2.056532673e-11
-2.040688539e-11
-2.025016631e-11
-2.00951508e-11
-1.994182015e-11
-1.979015564e-11
-1.964013853e-11
-1.949175014e-11
-1.934497179e-11
-1.919978487e-11
-1.905617084e-11
-1.891411119e-11
-1.877358755e-11
-1.863458161e-11
-1.849707517e-11
-1.836105015e-11
-1.82264886e-11
-1.809337266e-11
-1.796168465e-11
-1.783140699e-11
-1.770252225e-11
-1.757501317e-11
-1.744886261e-11
-1.732405361e-11
-1.720056934e-11
-1.707839317e-11
-1.695750858e-11
-1.683789925e-11
-1.671954904e-11
-1.660244193e-11
-1.648656211e-11
-1.637189394e-11
-1.625842191e-11
-1.614613073e-11
-1.603500527e-11
-1.592503057e-11
-1.581619184e-11
-1.570847448e-11
-1.560186405e-11
-1.549634628e-11
-1.53919071e-11
-1.528853258e-11
-1.518620901e-11
-1.508492283e-11
-1.498466068e-11
-1.488540939e-11
-1.478715595e-11
-1.468988758e-11
-1.459359167e-11
-1.449825584e-11
-1.440386788e-11
-1.431041583e-11
-1.421788787e-11
-1.412627245e-11
-1.403555814e-11
-1.394573374e-11
-1.385678821e-11
-1.376871067e-11
-1.368149037e-11
-1.359511669e-11
-1.35095791e-11
-1.342486717e-11
-1.334097054e-11
-1.325787891e-11
-1.317558205e-11
-1.309406984e-11
-1.30133322e-11
-1.29333592e-11
-1.285414102e-11
-1.277566799e-11
-1.269793062e-11
-1.26209196e-11
-1.254462584e-11
-1.246904044e-11
-1.239415468e-11
-1.231996005e-11
-1.224644815e-11
-1.217361073e-11
-1.210143965e-11
-1.202992681e-11
-1.195906421e-11
-1.188884391e-11
-1.1819258e-11
-1.17502987e-11
-1.168195831e-11
-1.161422926e-11
-1.154710415e-11
-1.14805757e-11
-1.141463681e-11
-1.134928052e-11
-1.12845e-11
-1.122028849e-11
-1.115663932e-11
-1.109354584e-11
-1.103100141e-11
-1.096899944e-11
-1.090753333e-11
-1.084659658e-11
-1.078618279e-11
-1.07262857e-11
-1.066689924e-11
-1.060801753e-11
-1.054963488e-11
-1.049174579e-11
-1.043434485e-11
-1.037742676e-11
-1.032098623e-11
-1.026501796e-11
-1.020951661e-11
-1.015447682e-11
-1.009989321e-11
-1.004576045e-11
-9.992073308e-12
-9.93882666e-12
-9.886015559e-12
-9.833635221e-12
-9.781681013e-12
-9.730148417e-12
-9.679032979e-12
-9.628330248e-12
-9.578035748e-12
-9.528144938e-12
-9.478653223e-12
-9.429555983e-12
-9.380848606e-12
-9.332526548e-12
-9.284585386e-12
-9.23702084e-12
-9.189828798e-12
-9.143005306e-12
-9.096546534e-12
-9.050448745e-12
-9.004708252e-12
-8.959321384e-12
-8.914284469e-12
-8.869593834e-12
-8.825245814e-12
-8.781236777e-12
-8.737563143e-12
-8.694221401e-12
-8.651208102e-12
-8.608519867e-12
-8.566153357e-12
-8.524105269e-12
-8.48237233e-12
-8.440951298e-12
-8.399838973e-12
-8.359032218e-12
-8.318527967e-12
-8.278323221e-12
-8.238415047e-12
-8.198800553e-12
-8.159476872e-12
-8.120441159e-12
-8.081690587e-12
-8.043222366e-12
-8.005033759e-12
-7.967122076e-12
-7.92948467e-12
-7.892118915e-12
-7.855022175e-12
-7.81819178e-12
-7.781625015e-12
-7.745319134e-12
-7.709271378e-12
-7.673479001e-12
-7.63793929e-12
-7.602649587e-12
-7.567607305e-12
-7.532809949e-12
-7.498255088e-12
-7.463940364e-12
-7.429863532e-12
-7.396022468e-12
-7.362415144e-12
-7.329039638e-12
-7.295894213e-12
-7.262977364e-12
-7.230287842e-12
-7.197824699e-12
-7.165587213e-12
-7.133574444e-12
-7.101784391e-12
-7.070212715e-12
-7.038851651e-12
-7.007690416e-12
-6.976716786e-12
-6.945916735e-12
-6.915277193e-12
-6.884806677e-12
-6.852904788e-12
-6.817863533e-12
-6.779433631e-12
-6.737360871e-12
-6.691379957e-12
-6.641202347e-12
-6.586502716e-12
-6.526915835e-12
-6.462034746e-12
-6.391421763e-12
-6.314635853e-12
-6.231236352e-12
-6.140815977e-12
-6.043001903e-12
-5.937452356e-12
-5.823874136e-12
-5.702017705e-12
-5.571659265e-12
-5.432669445e-12
-5.284951675e-12
-5.128507459e-12
-4.963480857e-12
-4.790063141e-12
-4.608712537e-12
-4.419928827e-12
-4.224536344e-12
-4.023442342e-12
-3.81791402e-12
-3.609356163e-12
-3.399570404e-12
-3.190588442e-12
-2.984895729e-12
-2.785348653e-12
-2.595412034e-12
-2.419150005e-12
-2.261588602e-12
-2.128859933e-12
-2.028844328e-12
-1.971809828e-12
-2.081178571e-11
-2.210652556e-11
-2.350305196e-11
-2.494239744e-11
-2.637414782e-11
-2.776055647e-11
-2.907633313e-11
-3.030643415e-11
-3.144339104e-11
-3.248492842e-11
-3.343213441e-11
-3.42881791e-11
-3.505745638e-11
-3.574500677e-11
-3.635612104e-11
-3.689607674e-11
-3.736998437e-11
-3.778271538e-11
-3.813887494e-11
-3.844278763e-11
-3.869848418e-11
-3.890969545e-11
-3.907986322e-11
-3.921216738e-11
-3.93095575e-11
-3.937477528e-11
-3.941036315e-11
-3.941866565e-11
-3.940183508e-11
-3.936184802e-11
-3.930053034e-11
-3.92195817e-11
-3.91205913e-11
-3.900504254e-11
-3.887431124e-11
-3.872966489e-11
-3.857226827e-11
-3.840319584e-11
-3.822344679e-11
-3.803395735e-11
-3.783560737e-11
-3.762922107e-11
-3.741556527e-11
-3.719534862e-11
-3.696922411e-11
-3.673779493e-11
-3.650162184e-11
-3.626122972e-11
-3.601711168e-11
-3.576973044e-11
-3.551951801e-11
-3.5266875e-11
-3.501217086e-11
-3.475574572e-11
-3.449791329e-11
-3.423896439e-11
-3.39791701e-11
-3.371878397e-11
-3.345804327e-11
-3.319716942e-11
-3.293636803e-11
-3.267582898e-11
-3.241572689e-11
-3.215622197e-11
-3.189746113e-11
-3.163957938e-11
-3.138270094e-11
-3.112694038e-11
-3.087240343e-11
-3.061918759e-11
-3.036738265e-11
-3.011707105e-11
-2.986832824e-11
-2.962122308e-11
-2.937581818e-11
-2.913217024e-11
-2.889033037e-11
-2.865034445e-11
-2.841225332e-11
-2.817609311e-11
-2.794189551e-11
-2.770968798e-11
-2.747949412e-11
-2.725133392e-11
-2.702522405e-11
-2.680117823e-11
-2.657920747e-11
-2.63593203e-11
-2.614152308e-11
-2.592582013e-11
-2.571221391e-11
-2.550070514e-11
-2.529129291e-11
-2.508397477e-11
-2.487874677e-11
-2.467560357e-11
-2.447453849e-11
-2.427554358e-11
-2.40786097e-11
-2.388372662e-11
-2.369088306e-11
-2.350006683e-11
-2.331126488e-11
-2.312446338e-11
-2.29396478e-11
-2.2756803e-11
-2.257591327e-11
-2.239696241e-11
-2.221993378e-11
-2.204481034e-11
-2.187157472e-11
-2.170020925e-11
-2.153069602e-11
-2.136301688e-11
-2.119715352e-11
-2.103308747e-11
-2.08708001e-11
-2.071027272e-11
-2.055148656e-11
-2.039442277e-11
-2.023906248e-11
-2.008538682e-11
-1.993337691e-11
-1.978301388e-11
-1.963427893e-11
-1.948715329e-11
-1.934161827e-11
-1.919765522e-11
-1.90552456e-11
-1.891437097e-11
-1.877501296e-11
-1.863715336e-11
-1.850077406e-11
-1.836585707e-11
-1.823238453e-11
-1.810033873e-11
-1.796970209e-11
-1.784045717e-11
-1.771258672e-11
-1.758607359e-11
-1.746090083e-11
-1.733705162e-11
-1.721450931e-11
-1.709325742e-11
-1.697327964e-11
-1.685455983e-11
-1.673708198e-11
-1.662083031e-11
-1.650578916e-11
-1.639194307e-11
-1.627927675e-11
-1.61677751e-11
-1.605742315e-11
-1.594820616e-11
-1.584010951e-11
-1.573311878e-11
-1.562721971e-11
-1.552239824e-11
-1.541864046e-11
-1.531593267e-11
-1.521426133e-11
-1.511361309e-11
-1.50139748e-11
-1.491533351e-11
-1.481767646e-11
-1.472099114e-11
-1.462526521e-11
-1.453048659e-11
-1.443664339e-11
-1.434372393e-11
-1.425171676e-11
-1.416061061e-11
-1.407039441e-11
-1.398105724e-11
-1.389258833e-11
-1.380497704e-11
-1.371821279e-11
-1.363228511e-11
-1.354718354e-11
-1.346289769e-11
-1.337941722e-11
-1.329673182e-11
-1.321483128e-11
-1.313370545e-11
-1.305334433e-11
-1.297373806e-11
-1.289487697e-11
-1.281675158e-11
-1.273935268e-11
-1.266267124e-11
-1.258669848e-11
-1.251142582e-11
-1.243684481e-11
-1.236294718e-11
-1.22897247e-11
-1.221716924e-11
-1.21452727e-11
-1.207402701e-11
-1.200342418e-11
-1.193345627e-11
-1.186411545e-11
-1.179539402e-11
-1.172728446e-11
-1.165977941e-11
-1.159287172e-11
-1.152655438e-11
-1.146082053e-11
-1.139566341e-11
-1.13310763e-11
-1.126705248e-11
-1.120358524e-11
-1.114066784e-11
-1.107829357e-11
-1.101645575e-11
-1.095514782e-11
-1.089436339e-11
-1.08340963e-11
-1.077434061e-11
-1.071509063e-11
-1.065634088e-11
-1.059808601e-11
-1.054032076e-11
-1.048303985e-11
-1.042623795e-11
-1.036990964e-11
-1.031404945e-11
-1.025865183e-11
-1.020371128e-11
-1.014922238e-11
-1.009517988e-11
-1.004157873e-11
-9.988414108e-12
-9.935681382e-12
-9.883376081e-12
-9.831493807e-12
-9.780030167e-12
-9.728980709e-12
-9.678340878e-12
-9.628106013e-12
-9.57827138e-12
-9.528832219e-12
-9.479783819e-12
-9.431121585e-12
-9.382841087e-12
-9.334938092e-12
-9.28740857e-12
-9.240248661e-12
-9.193454635e-12
-9.14702285e-12
-9.100949695e-12
-9.05523156e-12
-9.009864815e-12
-8.964845811e-12
-8.920170887e-12
-8.8758364e-12
-8.831838735e-12
-8.788174325e-12
-8.744839663e-12
-8.7018313e-12
-8.659145841e-12
-8.61677995e-12
-8.57473034e-12
-8.532993783e-12
-8.49156712e-12
-8.450447257e-12
-8.40963117e-12
-8.3691159e-12
-8.328898533e-12
-8.288976188e-12
-8.249346009e-12
-8.210005157e-12
-8.170950817e-12
-8.132180211e-12
-8.093690593e-12
-8.055479249e-12
-8.017543484e-12
-7.979880604e-12
-7.942487892e-12
-7.905362599e-12
-7.868501953e-12
-7.831903178e-12
-7.795563517e-12
-7.759480244e-12
-7.723650668e-12
-7.688072165e-12
-7.65274221e-12
-7.617658342e-12
-7.582818142e-12
-7.548219273e-12
-7.513859542e-12
-7.479736863e-12
-7.445849227e-12
-7.412194773e-12
-7.378771859e-12
-7.345579004e-12
-7.312614882e-12
-7.279878218e-12
-7.247367363e-12
-7.215079672e-12
-7.183010724e-12
-7.151153686e-12
-7.119499596e-12
-7.088038227e-12
-7.05675848e-12
-7.025650934e-12
-6.994722312e-12
-6.962352381e-12
-6.926803662e-12
-6.887816564e-12
-6.84512561e-12
-6.798454095e-12
-6.747504523e-12
-6.691945644e-12
-6.631410715e-12
-6.565493406e-12
-6.493756351e-12
-6.415758205e-12
-6.331053597e-12
-6.239227172e-12
-6.139901136e-12
-6.032720338e-12
-5.91738689e-12
-5.793644812e-12
-5.661260846e-12
-5.520108981e-12
-5.370086085e-12
-5.211194541e-12
-5.043585624e-12
-4.867445162e-12
-4.683250517e-12
-4.491494533e-12
-4.293031264e-12
-4.088763378e-12
-3.879994637e-12
-3.668138829e-12
-3.455032493e-12
-3.242739054e-12
-3.033779596e-12
-2.831061575e-12
-2.638101255e-12
-2.459029831e-12
-2.298954826e-12
-2.16410607e-12
-2.062491263e-12
-2.004545255e-12
-2.322991028e-11
-2.435821614e-11
-2.558248558e-11
-2.685415182e-11
-2.812994191e-11
-2.937575216e-11
-3.056729366e-11
-3.168890551e-11
-3.273167964e-11
-3.369159462e-11
-3.456798485e-11
-3.536241345e-11
-3.607787516e-11
-3.671822201e-11
-3.728774276e-11
-3.779087038e-11
-3.823200573e-11
-3.861542923e-11
-3.894525769e-11
-3.922541141e-11
-3.945958173e-11
-3.965120974e-11
-3.980348842e-11
-3.991938597e-11
-4.000167431e-11
-4.005294622e-11
-4.007561659e-11
-4.007191711e-11
-4.00438982e-11
-3.999344529e-11
-3.99223054e-11
-3.983211223e-11
-3.972440027e-11
-3.960060584e-11
-3.946206162e-11
-3.930999374e-11
-3.914552754e-11
-3.896970153e-11
-3.878348417e-11
-3.858778673e-11
-3.838346878e-11
-3.817133714e-11
-3.795214209e-11
-3.772657562e-11
-3.749527407e-11
-3.725882484e-11
-3.701777486e-11
-3.677263771e-11
-3.652389754e-11
-3.627200981e-11
-3.601739995e-11
-3.576046187e-11
-3.550155798e-11
-3.524102108e-11
-3.497915775e-11
-3.471625237e-11
-3.445257063e-11
-3.418836178e-11
-3.392385971e-11
-3.365928308e-11
-3.339483492e-11
-3.313070259e-11
-3.286705807e-11
-3.26040588e-11
-3.234184899e-11
-3.208056104e-11
-3.182031688e-11
-3.156122906e-11
-3.130340164e-11
-3.104693075e-11
-3.079190502e-11
-3.053840594e-11
-3.028650817e-11
-3.003627986e-11
-2.978778303e-11
-2.954107382e-11
-2.929620288e-11
-2.905321558e-11
-2.881215232e-11
-2.857304873e-11
-2.833593597e-11
-2.810084098e-11
-2.786778674e-11
-2.763679267e-11
-2.740787486e-11
-2.718104646e-11
-2.695631798e-11
-2.673369754e-11
-2.651319112e-11
-2.629480277e-11
-2.607853472e-11
-2.586438756e-11
-2.565236025e-11
-2.544245026e-11
-2.523465358e-11
-2.50289648e-11
-2.482537715e-11
-2.462388258e-11
-2.442447183e-11
-2.422713452e-11
-2.403185921e-11
-2.383863351e-11
-2.36474442e-11
-2.345827722e-11
-2.327111784e-11
-2.308595072e-11
-2.290275992e-11
-2.272152903e-11
-2.25422412e-11
-2.236487919e-11
-2.218942541e-11
-2.201586201e-11
-2.184417089e-11
-2.167433372e-11
-2.150633199e-11
-2.134014706e-11
-2.117576014e-11
-2.101315236e-11
-2.085230476e-11
-2.069319836e-11
-2.053581412e-11
-2.038013298e-11
-2.022613592e-11
-2.007380391e-11
-1.9923118e-11
-1.977405926e-11
-1.962660884e-11
-1.948074795e-11
-1.933645788e-11
-1.919372003e-11
-1.905251591e-11
-1.891282714e-11
-1.877463545e-11
-1.863792271e-11
-1.850267091e-11
-1.836886218e-11
-1.823647878e-11
-1.810550314e-11
-1.797591784e-11
-1.784770559e-11
-1.772084926e-11
-1.75953319e-11
-1.747113669e-11
-1.734824701e-11
-1.722664638e-11
-1.710631849e-11
-1.698724722e-11
-1.686941658e-11
-1.675281078e-11
-1.66374142e-11
-1.65232114e-11
-1.641018709e-11
-1.629832619e-11
-1.618761375e-11
-1.607803503e-11
-1.596957541e-11
-1.586222049e-11
-1.575595603e-11
-1.565076797e-11
-1.554664243e-11
-1.54435657e-11
-1.534152427e-11
-1.524050483e-11
-1.514049427e-11
-1.504147969e-11
-1.494344842e-11
-1.484638804e-11
-1.475028631e-11
-1.465513128e-11
-1.456091118e-11
-1.446761449e-11
-1.43752299e-11
-1.42837463e-11
-1.419315274e-11
-1.410343844e-11
-1.401459271e-11
-1.392660495e-11
-1.383946461e-11
-1.375316116e-11
-1.366768411e-11
-1.358302298e-11
-1.34991673e-11
-1.34161067e-11
-1.333383083e-11
-1.325232951e-11
-1.317159267e-11
-1.309161047e-11
-1.301237329e-11
-1.293387177e-11
-1.285609679e-11
-1.277903949e-11
-1.270269124e-11
-1.262704354e-11
-1.255208808e-11
-1.247781658e-11
-1.240422084e-11
-1.233129267e-11
-1.22590239e-11
-1.218740641e-11
-1.211643212e-11
-1.204609308e-11
-1.197638144e-11
-1.19072896e-11
-1.18388101e-11
-1.177093573e-11
-1.170365946e-11
-1.16369744e-11
-1.157087375e-11
-1.150535075e-11
-1.144039863e-11
-1.137601058e-11
-1.131217975e-11
-1.124889925e-11
-1.118616227e-11
-1.11239621e-11
-1.106229221e-11
-1.100114634e-11
-1.094051852e-11
-1.088040305e-11
-1.082079447e-11
-1.076168747e-11
-1.070307681e-11
-1.064495723e-11
-1.058732336e-11
-1.05301697e-11
-1.047349064e-11
-1.041728049e-11
-1.036153359e-11
-1.030624438e-11
-1.025140746e-11
-1.019701772e-11
-1.014307028e-11
-1.008956052e-11
-1.0036484e-11
-9.98383635e-12
-9.931613213e-12
-9.879810136e-12
-9.828422529e-12
-9.777445658e-12
-9.726874684e-12
-9.676704718e-12
-9.62693091e-12
-9.577548533e-12
-9.528553043e-12
-9.479940123e-12
-9.431705686e-12
-9.383845848e-12
-9.336356886e-12
-9.289235178e-12
-9.242477144e-12
-9.196079196e-12
-9.150037715e-12
-9.104349031e-12
-9.059009438e-12
-9.01401522e-12
-8.969362662e-12
-8.925048093e-12
-8.8810679e-12
-8.837418541e-12
-8.794096551e-12
-8.751098542e-12
-8.708421194e-12
-8.666061252e-12
-8.624015535e-12
-8.582280924e-12
-8.540854368e-12
-8.499732883e-12
-8.458913532e-12
-8.418393414e-12
-8.378169656e-12
-8.338239394e-12
-8.298599784e-12
-8.259248002e-12
-8.220181247e-12
-8.181396745e-12
-8.14289174e-12
-8.104663483e-12
-8.066709215e-12
-8.029026157e-12
-7.991611506e-12
-7.954462462e-12
-7.917576254e-12
-7.880950148e-12
-7.844581425e-12
-7.808467408e-12
-7.772605524e-12
-7.736993294e-12
-7.701628261e-12
-7.666508e-12
-7.631630215e-12
-7.596992749e-12
-7.562593501e-12
-7.528430479e-12
-7.494501886e-12
-7.460806048e-12
-7.427341331e-12
-7.394106056e-12
-7.361098093e-12
-7.328314346e-12
-7.295750338e-12
-7.263399898e-12
-7.231255492e-12
-7.19930889e-12
-7.167551651e-12
-7.135976833e-12
-7.104590573e-12
-7.071749e-12
-7.03568769e-12
-6.996138704e-12
-6.95282582e-12
-6.9054614e-12
-6.853740343e-12
-6.797325265e-12
-6.735846724e-12
-6.668897764e-12
-6.59604e-12
-6.51683203e-12
-6.430823735e-12
-6.337592168e-12
-6.236754974e-12
-6.127943991e-12
-6.010856488e-12
-5.885230509e-12
-5.750822791e-12
-5.607510923e-12
-5.455185103e-12
-5.293848276e-12
-5.123659323e-12
-4.944798127e-12
-4.757761617e-12
-4.563035324e-12
-4.361503294e-12
-4.1540634e-12
-3.942056103e-12
-3.726904067e-12
-3.510478814e-12
-3.294875412e-12
-3.082650633e-12
-2.876762927e-12
-2.680780057e-12
-2.498900216e-12
-2.336312456e-12
-2.199344274e-12
-2.096130753e-12
-2.037273475e-12
-4.303174605e-11
-6.995888231e-11
-1.241873154e-10
-2.047868459e-10
-2.995683628e-10
-3.94902308e-10
-4.830907453e-10
-5.607071915e-10
-6.263226325e-10
-6.796015645e-10
-7.247781943e-10
-7.723919096e-10
-8.304808112e-10
-9.017556308e-10
-4.371535882e-11
-7.096143224e-11
-1.256327753e-10
-2.065360124e-10
-3.013754065e-10
-3.96629809e-10
-4.846476409e-10
-5.619164104e-10
-6.26855109e-10
-6.790104349e-10
-7.225043528e-10
-7.671759169e-10
-8.191113746e-10
-8.772198856e-10
-4.43964813e-11
-7.195590883e-11
-1.270545678e-10
-2.082325014e-10
-3.030822724e-10
-3.981713562e-10
-4.858630945e-10
-5.625268049e-10
-6.264190712e-10
-6.770161348e-10
-7.184058192e-10
-7.597987569e-10
-8.059052883e-10
-8.543248842e-10
-4.507508475e-11
-7.294226271e-11
-1.284526927e-10
-2.098765197e-10
-3.04689473e-10
-3.995284978e-10
-4.867437131e-10
-5.625646661e-10
-6.250988904e-10
-6.738293596e-10
-7.129033529e-10
-7.510192117e-10
-7.920110338e-10
-8.333091246e-10
-4.575114097e-11
-7.392044718e-11
-1.298271601e-10
-2.114683111e-10
-3.061976811e-10
-4.007034532e-10
-4.872984845e-10
-5.620626461e-10
-6.229891784e-10
-6.696595329e-10
-7.063614405e-10
-7.413840811e-10
-7.780257147e-10
-8.13982519e-10
-4.642462224e-11
-7.489041822e-11
-1.311779901e-10
-2.130081547e-10