/*--------------------------------*- C++ -*----------------------------------*\
  =========                 |
  \\      /  F ield         | OpenFOAM: The Open Source CFD Toolbox
   \\    /   O peration     | Website:  https://openfoam.org
    \\  /    A nd           | Version:  7
     \\/     M anipulation  |
\*---------------------------------------------------------------------------*/
FoamFile
{
    version     2.0;
    format      ascii;
    class       volVectorField;
    location    "0/insulator";
    object      EIextMag;
}
// * * * * * * * * * * * * * * * * * * * * * * * * * * * * * * * * * * * * * //

dimensions      [1 1 -3 0 0 -1 0];

internalField   nonuniform List<vector> 
98782
(
(-400.761 110.787 0)
(-2016.85 695.701 0)
(-4164.64 1105.3 0)
(-5437.54 835.618 0)
(-5884.66 542.229 0)
(-6026.46 369.663 0)
(-6074.47 280.759 0)
(-6092.6 236.749 0)
(-6100.15 215.271 0)
(-6103.51 204.85 0)
(-6105.22 199.293 0)
(-6106.51 194.975 0)
(-6107.78 190.651 0)
(-6109.01 186.321 0)
(-6110.22 181.986 0)
(-6111.4 177.645 0)
(-6112.55 173.299 0)
(-6113.67 168.947 0)
(-6114.76 164.589 0)
(-6115.82 160.227 0)
(-6116.86 155.859 0)
(-214.484 263.576 0)
(-1560.46 1850.22 0)
(-4262.79 3529.58 0)
(-6635.42 3065.31 0)
(-7724.71 2119.65 0)
(-8114.87 1504.6 0)
(-8257.4 1177.39 0)
(-8314.18 1013.39 0)
(-8338.66 932.927 0)
(-8349.78 893.792 0)
(-8355.5 872.898 0)
(-8359.85 856.651 0)
(-8364.14 840.371 0)
(-8368.35 824.058 0)
(-8372.49 807.713 0)
(-8376.55 791.336 0)
(-8380.55 774.928 0)
(-8384.48 758.488 0)
(-8388.33 742.017 0)
(-8392.11 725.516 0)
(-8395.82 708.985 0)
(11.4978 303.982 0)
(-741.321 2528.58 0)
(-3857.87 6247.66 0)
(-8130.17 6824.21 0)
(-10866.5 5236.71 0)
(-11996.9 3928.78 0)
(-12438.2 3184.25 0)
(-12620.6 2801.49 0)
(-12700.8 2611.66 0)
(-12737.6 2518.89 0)
(-12756.7 2469.24 0)
(-12771.2 2430.59 0)
(-12785.6 2391.8 0)
(-12799.8 2352.88 0)
(-12813.7 2313.82 0)
(-12827.5 2274.64 0)
(-12841.1 2235.34 0)
(-12854.5 2195.9 0)
(-12867.6 2156.35 0)
(-12880.6 2116.66 0)
(-12893.4 2076.86 0)
(206.914 282.057 0)
(264.589 2778.49 0)
(-2518.98 8756.67 0)
(-8928.75 12482.9 0)
(-14736.3 10989.9 0)
(-17619.7 8772.28 0)
(-18828.7 7346.59 0)
(-19344.3 6581.75 0)
(-19574.6 6195.71 0)
(-19681.2 6005.55 0)
(-19736.6 5903.42 0)
(-19779 5823.72 0)
(-19820.9 5743.56 0)
(-19862.3 5662.95 0)
(-19903.2 5581.89 0)
(-19943.6 5500.4 0)
(-19983.5 5418.48 0)
(-20022.9 5336.12 0)
(-20061.8 5253.33 0)
(-20100.1 5170.12 0)
(-20138 5086.49 0)
(351.08 237.289 0)
(1235.93 2731.92 0)
(-257.434 10471.6 0)
(-8055.09 19343.1 0)
(-18111.2 20145.5 0)
(-24396.5 17256.3 0)
(-27272 14923.2 0)
(-28540.9 13581.9 0)
(-29116.1 12886.2 0)
(-29384.1 12539.3 0)
(-29523.9 12352 0)
(-29631 12205.3 0)
(-29737 12057.3 0)
(-29842 11908 0)
(-29945.8 11757.3 0)
(-30048.6 11605.4 0)
(-30150.2 11452.2 0)
(-30250.6 11297.7 0)
(-30349.9 11141.9 0)
(-30448 10984.9 0)
(-30544.9 10826.7 0)
(448.992 190.715 0)
(2033.02 2539.11 0)
(2475.96 11222.9 0)
(-5052.39 25902.2 0)
(-19408.9 32447.3 0)
(-30978.3 30157 0)
(-36893 26980.1 0)
(-39613.2 24929.4 0)
(-40867 23819.9 0)
(-41455.2 23256.7 0)
(-41763 22950.1 0)
(-41999.4 22708.8 0)
(-42233.8 22464.1 0)
(-42466.1 22216 0)
(-42696.3 21964.6 0)
(-42924.4 21709.9 0)
(-43150.2 21451.9 0)
(-43373.7 21190.6 0)
(-43595 20926.1 0)
(-43813.9 20658.3 0)
(-44030.4 20387.4 0)
(513.026 150.66 0)
(2623.17 2307.71 0)
(5136.34 11232.1 0)
(-303.211 30865.9 0)
(-17580.6 46278.2 0)
(-35578.1 47167.3 0)
(-46131.1 43806.3 0)
(-51241.5 41120.8 0)
(-53645.2 39568 0)
(-54782.7 38758.4 0)
(-55380.4 38312.3 0)
(-55840.5 37958.6 0)
(-56297.4 37597.4 0)
(-56751.2 37228.7 0)
(-57201.5 36852.6 0)
(-57648.3 36469.1 0)
(-58091.4 36078.2 0)
(-58530.7 35679.9 0)
(-58966.2 35274.3 0)
(-59397.5 34861.4 0)
(-59824.6 34441.3 0)
(554.458 119.024 0)
(3035.48 2093.51 0)
(7382.76 10838.1 0)
(5226.13 33842.4 0)
(-12711.8 59369.1 0)
(-36810.8 66691.5 0)
(-53254.5 64508.8 0)
(-61722.4 61591 0)
(-65805.5 59707.8 0)
(-67758.3 58685 0)
(-68789.8 58111.4 0)
(-69586 57651.9 0)
(-70378.5 57177.8 0)
(-71167.1 56689.3 0)
(-71951.4 56186.2 0)
(-72731.2 55668.7 0)
(-73506 55136.7 0)
(-74275.6 54590.1 0)
(-75039.7 54029.1 0)
(-75797.9 53453.7 0)
(-76549.9 52864 0)
(581.385 95.1178 0)
(3315.79 1916.68 0)
(9118.97 10307 0)
(10580.7 35188.4 0)
(-5863.54 70040 0)
(-34469 86381.1 0)
(-57133.3 87124.4 0)
(-69616.9 84676.7 0)
(-75808.6 82733.1 0)
(-78806.8 81607.5 0)
(-80399.9 80959.6 0)
(-81633.9 80432.5 0)
(-82865.5 79880.9 0)
(-84094.1 79304.7 0)
(-85319.2 78703.8 0)
(-86540 78078.1 0)
(-87756 77427.4 0)
(-88966.7 76751.8 0)
(-90171.3 76051 0)
(-91369.1 75325.2 0)
(-92559.7 74574.3 0)
(599.087 77.4918 0)
(3504.78 1779.25 0)
(10393.9 9788.77 0)
(15189.3 35505.5 0)
(1598.96 77784.1 0)
(-29490.6 104126 0)
(-57710.2 109313 0)
(-74326.7 108122 0)
(-82811.1 106472 0)
(-86973.3 105403 0)
(-89198.9 104762 0)
(-90929.3 104229 0)
(-92661.3 103659 0)
(-94393.9 103053 0)
(-96126.3 102409 0)
(-97857.3 101728 0)
(-99586 101009 0)
(-101311 100251 0)
(-103033 99455.6 0)
(-104748 98621.3 0)
(-106458 97748.1 0)
(610.886 64.6823 0)
(3632.44 1676.05 0)
(11305 9346.42 0)
(18870.5 35302.2 0)
(8608.34 82966.4 0)
(-23266.1 118762 0)
(-55820 129197 0)
(-76186.2 129863 0)
(-86870.4 128820 0)
(-92176.8 127962 0)
(-95031.7 127410 0)
(-97259.3 126933 0)
(-99495.2 126408 0)
(-101738 125834 0)
(-103986 125209 0)
(-106239 124533 0)
(-108495 123805 0)
(-110752 123026 0)
(-113009 122193 0)
(-115264 121307 0)
(-117517 120367 0)
(618.853 55.4551 0)
(3719.24 1600.15 0)
(11948 8994.48 0)
(21677.9 34902 0)
(14598.3 86265.2 0)
(-16982.7 130093 0)
(-52601.8 145796 0)
(-76061.7 148587 0)
(-88659.2 148338 0)
(-94983.6 147791 0)
(-98404.4 147384 0)
(-101082 147010 0)
(-103776 146575 0)
(-106486 146080 0)
(-109208 145522 0)
(-111942 144901 0)
(-114686 144216 0)
(-117438 143465 0)
(-120197 142647 0)
(-122960 141761 0)
(-125725 140808 0)
(624.295 48.8452 0)
(3778.72 1545.02 0)
(12399.7 8725.73 0)
(23759.3 34475.3 0)
(19411 88312.5 0)
(-11360.3 138513 0)
(-49011.7 158951 0)
(-74863.1 163827 0)
(-89011.1 164414 0)
(-96176.8 164215 0)
(-100070 163976 0)
(-103125 163724 0)
(-106206 163403 0)
(-109310 163011 0)
(-112435 162546 0)
(-115580 162008 0)
(-118742 161394 0)
(-121920 160703 0)
(-125112 159934 0)
(-128315 159085 0)
(-131526 158154 0)
(628.046 44.1274 0)
(3819.78 1505.3 0)
(12716.6 8525.6 0)
(25276.2 34096.1 0)
(23123.9 89574.2 0)
(-6695.48 144619 0)
(-45645.2 169005 0)
(-73271.1 175728 0)
(-88616.8 177090 0)
(-96443.1 177224 0)
(-100710 177151 0)
(-104065 177019 0)
(-107454 176812 0)
(-110874 176527 0)
(-114322 176161 0)
(-117798 175713 0)
(-121299 175181 0)
(-124822 174563 0)
(-128366 173857 0)
(-131928 173061 0)
(-135505 172173 0)
(630.65 40.7679 0)
(3848.31 1476.85 0)
(12939.3 8378.97 0)
(26370.3 33787.1 0)
(25912 90356.4 0)
(-3012.25 148986 0)
(-42778.1 176501 0)
(-71689.4 184752 0)
(-87931.9 186776 0)
(-96259.3 187200 0)
(-100811 187271 0)
(-104397 187248 0)
(-108022 187143 0)
(-111685 186955 0)
(-115384 186680 0)
(-119116 186317 0)
(-122879 185863 0)
(-126671 185316 0)
(-130490 184673 0)
(-134333 183933 0)
(-138196 183093 0)
(632.469 38.3795 0)
(3868.22 1456.53 0)
(13095.9 8272.67 0)
(27154.4 33547.4 0)
(27967.9 90848 0)
(-199.462 152089 0)
(-40477.6 181999 0)
(-70308 191456 0)
(-87208.7 194012 0)
(-95907.7 194673 0)
(-100672 194864 0)
(-104430 194930 0)
(-108232 194911 0)
(-112077 194803 0)
(-115964 194606 0)
(-119889 194315 0)
(-123850 193928 0)
(-127846 193444 0)
(-131873 192858 0)
(-135929 192169 0)
(-140011 191374 0)
(633.743 36.6834 0)
(3882.18 1442.06 0)
(13206.3 8196.15 0)
(27714.1 33366.9 0)
(29465.4 91162.5 0)
(1900.21 154286 0)
(-38702.4 185987 0)
(-69185.4 196365 0)
(-86563.4 199334 0)
(-95533.8 200180 0)
(-100454 200465 0)
(-104338 200601 0)
(-108270 200650 0)
(-112250 200607 0)
(-116275 200471 0)
(-120343 200239 0)
(-124451 199907 0)
(-128598 199473 0)
(-132780 198934 0)
(-136994 198287 0)
(-141238 197530 0)
(634.639 35.4799 0)
(3891.99 1431.77 0)
(13284.1 8141.35 0)
(28112.6 33233.7 0)
(30546.9 91367.4 0)
(3443.18 155839 0)
(-37367.9 188858 0)
(-68313 199925 0)
(-86034.1 203205 0)
(-95201 204192 0)
(-100234 204548 0)
(-104209 204738 0)
(-108237 204838 0)
(-112315 204846 0)
(-116441 204757 0)
(-120613 204570 0)
(-124828 204280 0)
(-129085 203886 0)
(-133380 203384 0)
(-137710 202771 0)
(-142073 202045 0)
(635.27 34.6262 0)
(3898.91 1424.46 0)
(13339.1 8102.22 0)
(28395.9 33136.5 0)
(31323.6 91503.3 0)
(4564.77 156938 0)
(-36382.4 190915 0)
(-67654.4 202488 0)
(-85621.1 205999 0)
(-94929.1 207090 0)
(-100044 207500 0)
(-104085 207730 0)
(-108181 207869 0)
(-112329 207913 0)
(-116529 207861 0)
(-120776 207707 0)
(-125069 207450 0)
(-129405 207086 0)
(-133782 206612 0)
(-138197 206025 0)
(-142646 205322 0)
(635.716 34.021 0)
(3903.78 1419.28 0)
(13378 8074.35 0)
(28597 33066.3 0)
(31879 91594.8 0)
(5373.84 157715 0)
(-35663.6 192383 0)
(-67166.8 204324 0)
(-85308.6 208004 0)
(-94717.5 209172 0)
(-99890.3 209621 0)
(-103979 209881 0)
(-108124 210048 0)
(-112323 210120 0)
(-116575 210094 0)
(-120876 209965 0)
(-125225 209732 0)
(-129619 209390 0)
(-134055 208937 0)
(-138530 208370 0)
(-143042 207684 0)
(636.297 33.228 0)
(3910.15 1412.47 0)
(13428.8 8037.63 0)
(28860.7 32972.3 0)
(32610.8 91707 0)
(6446.38 158730 0)
(-34703.4 194323 0)
(-66508.6 206761 0)
(-84880.8 210670 0)
(-94422.7 211942 0)
(-99672.4 212444 0)
(-103824 212744 0)
(-108034 212951 0)
(-112300 213061 0)
(-116621 213070 0)
(-120994 212977 0)
(-125416 212776 0)
(-129886 212466 0)
(-134400 212042 0)
(-138956 211501 0)
(-143550 210841 0)
(637.087 32.1435 0)
(3918.79 1403.16 0)
(13497.9 7987.18 0)
(29222.2 32841.2 0)
(33625.3 91850.8 0)
(7952.85 160113 0)
(-33332.6 196994 0)
(-65548.6 210131 0)
(-84238.5 214363 0)
(-93964.8 215783 0)
(-99321.3 216361 0)
(-103560 216718 0)
(-107860 216981 0)
(-112220 217144 0)
(-116637 217206 0)
(-121110 217161 0)
(-125636 217008 0)
(-130212 216742 0)
(-134836 216360 0)
(-139504 215858 0)
(-144214 215233 0)
(637.872 31.0576 0)
(3927.38 1393.82 0)
(13566.9 7936.33 0)
(29584.9 32706.4 0)
(34654.3 91981.5 0)
(9500.99 161490 0)
(-31900.9 199694 0)
(-64525.5 213556 0)
(-83535.8 218125 0)
(-93449.1 219701 0)
(-98914.2 220359 0)
(-103241 220777 0)
(-107633 221097 0)
(-112088 221318 0)
(-116605 221434 0)
(-121179 221442 0)
(-125810 221339 0)
(-130496 221121 0)
(-135232 220784 0)
(-140015 220324 0)
(-144844 219738 0)
(638.652 29.9705 0)
(3935.92 1384.45 0)
(13635.5 7885.1 0)
(29948.7 32568 0)
(35697.8 92098.7 0)
(11091.5 162861 0)
(-30406.6 202422 0)
(-63436.5 217035 0)
(-82769.9 221958 0)
(-92872.7 223696 0)
(-98448.1 224439 0)
(-102865 224920 0)
(-107351 225303 0)
(-111903 225583 0)
(-116520 225758 0)
(-121199 225822 0)
(-125938 225772 0)
(-130734 225605 0)
(-135585 225316 0)
(-140487 224901 0)
(-145437 224357 0)
(639.428 28.882 0)
(3944.4 1375.06 0)
(13703.9 7833.48 0)
(30313.6 32425.9 0)
(36755.9 92202 0)
(12725.5 164224 0)
(-28847.5 205177 0)
(-62279 220571 0)
(-81937.8 225863 0)
(-92232.5 227772 0)
(-97919.9 228603 0)
(-102429 229151 0)
(-107009 229599 0)
(-111661 229943 0)
(-116380 230179 0)
(-121166 230302 0)
(-126015 230310 0)
(-130925 230196 0)
(-135893 229959 0)
(-140917 229593 0)
(-145992 229094 0)
(640.199 27.7921 0)
(3952.83 1365.65 0)
(13772 7781.48 0)
(30679.5 32280.2 0)
(37828.5 92291.1 0)
(14403.6 165579 0)
(-27221.5 207959 0)
(-61050.2 224163 0)
(-81036.3 229840 0)
(-91525.3 231928 0)
(-97326.3 232852 0)
(-101928 233471 0)
(-106606 233988 0)
(-111358 234399 0)
(-116182 234700 0)
(-121076 234886 0)
(-126038 234954 0)
(-131064 234898 0)
(-136153 234715 0)
(-141300 234401 0)
(-146503 233951 0)
(640.965 26.701 0)
(3961.2 1356.21 0)
(13839.8 7729.09 0)
(31046.4 32130.7 0)
(38915.8 92365.4 0)
(16126.7 166923 0)
(-25526.6 210766 0)
(-59747 227811 0)
(-80062.4 233890 0)
(-90747.7 236166 0)
(-96664 237187 0)
(-101360 237880 0)
(-106137 238470 0)
(-110991 238952 0)
(-115922 239321 0)
(-120927 239574 0)
(-126003 239706 0)
(-131149 239712 0)
(-136361 239589 0)
(-141635 239330 0)
(-146969 238933 0)
(641.726 25.6085 0)
(3969.51 1346.75 0)
(13907.3 7676.31 0)
(31414.1 31977.5 0)
(40017.5 92424.8 0)
(17895.6 168257 0)
(-23760.6 213599 0)
(-58366.7 231515 0)
(-79012.5 238014 0)
(-89896.4 240487 0)
(-95929.4 241610 0)
(-100722 242381 0)
(-105598 243047 0)
(-110557 243604 0)
(-115597 244046 0)
(-120714 244370 0)
(-125908 244570 0)
(-131175 244642 0)
(-136512 244581 0)
(-141917 244382 0)
(-147386 244041 0)
(642.482 24.5148 0)
(3977.77 1337.26 0)
(13974.6 7623.16 0)
(31782.5 31820.5 0)
(41133.7 92468.7 0)
(19711.1 169578 0)
(-21921.4 216456 0)
(-56906 235274 0)
(-77883.4 242212 0)
(-88967.8 244891 0)
(-95119 246122 0)
(-100009 246975 0)
(-104987 247722 0)
(-110052 248357 0)
(-115202 248876 0)
(-120435 249274 0)
(-125748 249547 0)
(-131139 249688 0)
(-136605 249694 0)
(-142143 249559 0)
(-147749 249279 0)
(643.234 23.4198 0)
(3985.97 1327.75 0)
(14041.5 7569.62 0)
(32151.8 31659.7 0)
(42264.5 92496.8 0)
(21574.2 170885 0)
(-20006.5 219336 0)
(-55361.7 239090 0)
(-76671.4 246485 0)
(-87957.9 249380 0)
(-94228.8 250724 0)
(-99217 251663 0)
(-104298 252494 0)
(-109471 253213 0)
(-114734 253813 0)
(-120084 254291 0)
(-125519 254640 0)
(-131036 254855 0)
(-136634 254932 0)
(-142308 254866 0)
(-148055 254650 0)
(643.98 22.3235 0)
(3994.12 1318.22 0)
(14108.1 7515.7 0)
(32521.7 31495.2 0)
(43409.7 92508.7 0)
(23485.5 172178 0)
(-18013.6 222238 0)
(-53730.5 242962 0)
(-75372.6 250834 0)
(-86863.1 253955 0)
(-93255 255417 0)
(-98343 256447 0)
(-103529 257367 0)
(-108811 258173 0)
(-114188 258859 0)
(-119657 259420 0)
(-125217 259851 0)
(-130864 260145 0)
(-136595 260298 0)
(-142408 260304 0)
(-148300 260158 0)
(644.722 21.226 0)
(4002.2 1308.66 0)
(14174.3 7461.41 0)
(32892.1 31326.8 0)
(44569.3 92504 0)
(25445.9 173453 0)
(-15940.5 225161 0)
(-52009 246890 0)
(-73983.4 255258 0)
(-85679.2 258616 0)
(-92193.3 260202 0)
(-97382.5 261327 0)
(-102675 262341 0)
(-108068 263239 0)
(-113561 264016 0)
(-119152 264665 0)
(-124837 265181 0)
(-130616 265559 0)
(-136484 265793 0)
(-142440 265876 0)
(-148479 265804 0)
(645.459 20.1271 0)
(4010.23 1299.08 0)
(14240.2 7406.74 0)
(33263.1 31154.6 0)
(45743.2 92482.3 0)
(27456.4 174711 0)
(-13784.7 228104 0)
(-50193.6 250873 0)
(-72499.6 259759 0)
(-84401.9 263364 0)
(-91039.5 265080 0)
(-96331 266305 0)
(-101731 267418 0)
(-107237 268413 0)
(-112848 269285 0)
(-118561 270028 0)
(-124376 270635 0)
(-130289 271101 0)
(-136297 271421 0)
(-142397 271587 0)
(-148587 271594 0)
(646.191 19.027 0)
(4018.2 1289.48 0)
(14305.8 7351.7 0)
(33634.6 30978.6 0)
(46931.4 92443.1 0)
(29517.6 175950 0)
(-11543.7 231066 0)
(-48280.8 254911 0)
(-70917.1 264337 0)
(-83027 268201 0)
(-89789 270053 0)
(-95183.9 271383 0)
(-100692 272599 0)
(-106312 273697 0)
(-112043 274669 0)
(-117882 275510 0)
(-123827 276213 0)
(-129877 276773 0)
(-136028 277184 0)
(-142276 277438 0)
(-148620 277530 0)
(646.918 17.9257 0)
(4026.11 1279.85 0)
(14371 7296.28 0)
(34006.4 30798.7 0)
(48133.8 92386.2 0)
(31630.4 177168 0)
(-9214.97 234044 0)
(-46266.7 259003 0)
(-69231.5 268992 0)
(-81549.8 273126 0)
(-88437.3 275121 0)
(-93936.5 276561 0)
(-99554.7 277886 0)
(-105291 279091 0)
(-111143 280168 0)
(-117109 281113 0)
(-123187 281919 0)
(-129376 282578 0)
(-135672 283085 0)
(-142072 283433 0)
(-148573 283616 0)
(647.641 16.8232 0)
(4033.96 1270.2 0)
(14435.9 7240.49 0)
(34378.5 30614.9 0)
(49350.1 92311.1 0)
(33795.5 178363 0)
(-6796.05 237038 0)
(-44147.4 263149 0)
(-67438.5 273724 0)
(-79965.7 278141 0)
(-86979.4 280285 0)
(-92583.9 281840 0)
(-98313.1 283279 0)
(-104166 284597 0)
(-110141 285786 0)
(-116236 286840 0)
(-122450 287753 0)
(-128780 288517 0)
(-135223 289127 0)
(-141778 289574 0)
(-148439 289853 0)
(648.358 15.7194 0)
(4041.75 1260.53 0)
(14500.4 7184.34 0)
(34750.7 30427.2 0)
(50580.3 92217.4 0)
(36013.7 179534 0)
(-4284.45 240044 0)
(-41919.2 267349 0)
(-65533.5 278532 0)
(-78269.9 283245 0)
(-85410.5 285546 0)
(-91121 287221 0)
(-96962.4 288780 0)
(-102933 290216 0)
(-109033 291522 0)
(-115259 292692 0)
(-121610 293718 0)
(-128084 294593 0)
(-134677 295312 0)
(-141389 295865 0)
(-148214 296246 0)
(649.071 14.6144 0)
(4049.48 1250.84 0)
(14564.4 7127.82 0)
(35123.1 30235.7 0)
(51824.3 92104.7 0)
(38285.8 180678 0)
(-1677.26 243063 0)
(-39577.7 271600 0)
(-63511.5 283418 0)
(-76457 288439 0)
(-83725.1 290903 0)
(-89542.4 292705 0)
(-95496.8 294389 0)
(-101587 295950 0)
(-107813 297379 0)
(-114171 298670 0)
(-120661 299816 0)
(-127281 300809 0)
(-134028 301642 0)
(-140899 302308 0)
(-147891 302798 0)
(649.778 13.5082 0)
(4057.15 1241.12 0)
(14628.1 7070.93 0)
(35495.6 30040.2 0)
(53082 91972.5 0)
(40612.6 181795 0)
(1028.08 246091 0)
(-37118.8 275903 0)
(-61367.7 288381 0)
(-74522 293724 0)
(-81917.9 296359 0)
(-87842.6 298293 0)
(-93910.8 300109 0)
(-100122 301800 0)
(-106474 303359 0)
(-112967 304778 0)
(-119598 306050 0)
(-126366 307167 0)
(-133268 308122 0)
(-140302 308906 0)
(-147464 309512 0)
(650.481 12.4009 0)
(4064.76 1231.39 0)
(14691.4 7013.69 0)
(35867.9 29840.8 0)
(54352.9 91820.6 0)
(42994.6 182883 0)
(3834.11 249127 0)
(-34538.3 280255 0)
(-59097.1 293420 0)
(-72459.5 299098 0)
(-79983.5 301912 0)
(-86015.9 303985 0)
(-92198.7 305938 0)
(-98531.1 307767 0)
(-105012 309461 0)
(-111640 311015 0)
(-118414 312420 0)
(-125333 313668 0)
(-132393 314751 0)
(-139592 315661 0)
(-146927 316390 0)
(651.178 11.2922 0)
(4072.3 1221.63 0)
(14754.3 6956.08 0)
(36240.1 29637.5 0)
(55637.2 91648.4 0)
(45432.7 183938 0)
(6743.9 252168 0)
(-31831.5 284657 0)
(-56694.3 298535 0)
(-70263.7 304564 0)
(-77915.7 307564 0)
(-84056.3 309781 0)
(-90354.2 311880 0)
(-96808.9 313851 0)
(-103419 315689 0)
(-110185 317384 0)
(-117103 318929 0)
(-124174 320315 0)
(-131394 321534 0)
(-138761 322578 0)
(-146272 323437 0)
(651.871 10.1824 0)
(4079.79 1211.85 0)
(14816.8 6898.11 0)
(36612.1 29430.2 0)
(56934.5 91455.6 0)
(47927.6 184961 0)
(9760.11 255212 0)
(-28993.8 289106 0)
(-54153.7 303725 0)
(-67928.7 310119 0)
(-75708.7 313315 0)
(-81957.6 315683 0)
(-88371.1 317933 0)
(-94948.7 320055 0)
(-101690 322042 0)
(-108593 323886 0)
(-115658 325578 0)
(-122882 327110 0)
(-130265 328473 0)
(-137803 329657 0)
(-145493 330654 0)
(652.559 9.07154 0)
(4087.21 1202.04 0)
(14878.8 6839.79 0)
(36983.7 29219 0)
(58244.5 91241.8 0)
(50479.7 185947 0)
(12885.4 258256 0)
(-26020.9 293600 0)
(-51470.1 308989 0)
(-65448.8 315764 0)
(-73356.3 319163 0)
(-79713.6 321690 0)
(-86242.9 324098 0)
(-92944 326378 0)
(-99816.5 328522 0)
(-106859 330522 0)
(-114071 332369 0)
(-121452 334054 0)
(-128999 335568 0)
(-136709 336901 0)
(-144581 338045 0)
(653.241 7.9594 0)
(4094.57 1192.22 0)
(14940.4 6781.11 0)
(37354.8 29003.9 0)
(59567.1 91006.6 0)
(53089.9 186896 0)
(16122.9 261298 0)
(-22907.5 298138 0)
(-48637.3 314327 0)
(-62817.5 321499 0)
(-70851.9 325111 0)
(-77317.4 327803 0)
(-83962.7 330376 0)
(-90787.7 332821 0)
(-97792.2 335130 0)
(-104975 337294 0)
(-112336 339304 0)
(-119874 341150 0)
(-127587 342824 0)
(-135473 344314 0)
(-143530 345612 0)
(653.919 6.8461 0)
(4101.86 1182.38 0)
(15001.6 6722.08 0)
(37725.5 28784.8 0)
(60902 90749.6 0)
(55758.7 187805 0)
(19475.3 264334 0)
(-19648.9 302717 0)
(-45649.5 319738 0)
(-60028.3 327322 0)
(-68188.9 331156 0)
(-74762.3 334020 0)
(-81523.4 336766 0)
(-88472.6 339385 0)
(-95609.6 341866 0)
(-102934 344202 0)
(-110445 346383 0)
(-118142 348399 0)
(-126023 350241 0)
(-134087 351897 0)
(-142330 353359 0)
(654.592 5.73166 0)
(4109.09 1172.51 0)
(15062.3 6662.7 0)
(38095.5 28561.7 0)
(62248.9 90470.3 0)
(58486.5 188672 0)
(22945.6 267361 0)
(-16239.9 307337 0)
(-42500.6 325219 0)
(-57074.8 333234 0)
(-65360.4 337298 0)
(-72041.1 340343 0)
(-78917.9 343270 0)
(-85991.3 346069 0)
(-93261.2 348732 0)
(-100727 351248 0)
(-108389 353608 0)
(-116247 355803 0)
(-124298 357821 0)
(-132541 359653 0)
(-140974 361287 0)
(655.259 4.61607 0)
(4116.26 1162.62 0)
(15122.5 6602.98 0)
(38464.8 28334.7 0)
(63607.4 90168.5 0)
(61274 189495 0)
(26536.8 270377 0)
(-12675.5 311993 0)
(-39184.1 330770 0)
(-53949.9 339232 0)
(-62359.2 343538 0)
(-69146.6 346771 0)
(-76138.7 349886 0)
(-83336 352874 0)
(-90739.1 355726 0)
(-98347.4 358431 0)
(-106161 360980 0)
(-114180 363362 0)
(-122402 365567 0)
(-130827 367583 0)
(-139452 369400 0)
(655.922 3.49941 0)
(4123.36 1152.72 0)
(15182.2 6542.92 0)
(38833.1 28103.7 0)
(64977.2 89843.7 0)
(64121.3 190271 0)
(30251.4 273376 0)
(-8950.43 316684 0)
(-35693.8 336388 0)
(-50646.9 345316 0)
(-59178.2 349873 0)
(-66071.4 353302 0)
(-73178 356614 0)
(-80499.1 359800 0)
(-88035.2 362850 0)
(-95786.1 365753 0)
(-103752 368499 0)
(-111934 371078 0)
(-120329 373478 0)
(-128936 375688 0)
(-137755 377697 0)
(656.579 2.38157 0)
(4130.4 1142.79 0)
(15241.5 6482.51 0)
(39200.6 27868.7 0)
(66358 89495.6 0)
(67029.3 190998 0)
(34092.8 276357 0)
(-5058.9 321406 0)
(-32022.6 342072 0)
(-47158 351484 0)
(-55809.4 356303 0)
(-62807.2 359936 0)
(-70027.6 363454 0)
(-77471.8 366846 0)
(-85140.7 370103 0)
(-93034.3 373214 0)
(-101153 376167 0)
(-109498 378952 0)
(-118067 381558 0)
(-126859 383973 0)
(-135873 386184 0)
(657.232 1.26261 0)
(4137.37 1132.84 0)
(15300.3 6421.76 0)
(39567 27629.8 0)
(67749.4 89123.7 0)
(69998 191673 0)
(38064 279314 0)
(-995.538 326157 0)
(-28163.7 347820 0)
(-43475.9 357736 0)
(-52245.2 362826 0)
(-59346.2 366672 0)
(-66679.2 370405 0)
(-74245.8 374013 0)
(-82047 377486 0)
(-90083.2 380813 0)
(-98355.2 383984 0)
(-106864 386985 0)
(-115607 389807 0)
(-124586 392436 0)
(-133797 394861 0)
(657.879 0.142607 0)
(4144.28 1122.88 0)
(15358.5 6360.68 0)
(39932.2 27387 0)
(69150.9 88727.8 0)
(73027.7 192294 0)
(42167.4 282244 0)
(3245.09 330932 0)
(-24110.3 353628 0)
(-39593.1 364067 0)
(-48477.6 369441 0)
(-55680.2 373509 0)
(-63124.5 377465 0)
(-70812.4 381298 0)
(-78745.3 384998 0)
(-86923.7 388551 0)
(-95348.8 391949 0)
(-104021 395178 0)
(-112941 398226 0)
(-122106 401081 0)
(-131517 403730 0)
(658.521 -0.978559 0)
(4151.12 1112.89 0)
(15416.3 6299.27 0)
(40296.2 27140.2 0)
(70562.2 88307.4 0)
(76118.9 192859 0)
(46406.7 285141 0)
(7669.28 335730 0)
(-19854.5 359495 0)
(-35501 370478 0)
(-44497.9 376146 0)
(-51800.2 380445 0)
(-59354.3 384635 0)
(-67162.2 388702 0)
(-75225.8 392638 0)
(-83545.9 396429 0)
(-92123.8 400063 0)
(-100961 403530 0)
(-110056 406815 0)
(-119410 409907 0)
(-129020 412792 0)
(659.158 -2.10082 0)
(4157.9 1102.89 0)
(15473.5 6237.52 0)
(40658.7 26889.4 0)
(71982.8 87862.1 0)
(79271.6 193364 0)
(50784.4 288003 0)
(12282.8 340544 0)
(-15389.2 365417 0)
(-31191.8 376964 0)
(-40297.7 382940 0)
(-47697.5 387479 0)
(-55359.4 391911 0)
(-63285.9 396224 0)
(-71479.1 400405 0)
(-79940 404444 0)
(-88670.3 408327 0)
(-97671.4 412042 0)
(-106943 415577 0)
(-116485 418917 0)
(-126298 422049 0)
(659.791 -3.22415 0)
(4164.6 1092.86 0)
(15530.2 6175.45 0)
(41019.8 26634.8 0)
(73412.3 87391.8 0)
(82485.9 193808 0)
(55303.5 290822 0)
(17091.6 345372 0)
(-10706.5 371392 0)
(-26656.8 383525 0)
(-35868.1 389819 0)
(-43363 394609 0)
(-51130.6 399293 0)
(-59173.9 403861 0)
(-67495.1 408300 0)
(-76095.7 412597 0)
(-84977.8 416739 0)
(-94142.8 420715 0)
(-103591 424510 0)
(-113322 428110 0)
(-123337 431503 0)
(660.418 -4.34856 0)
(4171.24 1082.81 0)
(15586.4 6113.06 0)
(41379.2 26376.2 0)
(74850 86895.9 0)
(85761.8 194187 0)
(59967 293595 0)
(22101.9 350207 0)
(-5798.59 377414 0)
(-21887.4 390155 0)
(-31200 396781 0)
(-38787.1 401831 0)
(-46658.1 406779 0)
(-54816 411612 0)
(-63263.6 416319 0)
(-72002.6 420886 0)
(-81035.4 425299 0)
(-90363.7 429547 0)
(-99988.1 433615 0)
(-109909 437488 0)
(-120127 441153 0)
(661.039 -5.47397 0)
(4177.82 1072.75 0)
(15642 6050.35 0)
(41736.8 26113.7 0)
(76295.4 86374.2 0)
(89099.1 194498 0)
(64777.4 296316 0)
(27319.7 355047 0)
(-657.512 383481 0)
(-16874.9 396853 0)
(-26284.2 403822 0)
(-33960.5 409143 0)
(-41932 414365 0)
(-50202.3 419476 0)
(-58774.2 424461 0)
(-67650 429309 0)
(-76832.2 434006 0)
(-86323.1 438538 0)
(-96123.3 442891 0)
(-106234 447050 0)
(-116655 451000 0)
(661.656 -6.6005 0)
(4184.32 1062.67 0)
(15697 5987.31 0)
(42092.6 25847.2 0)
(77748 85826.4 0)
(92497.9 194739 0)
(69738.1 298978 0)
(32752.1 359884 0)
(4725.67 389588 0)
(-11609.3 403615 0)
(-21110.4 410941 0)
(-28872.5 416544 0)
(-36941.6 422051 0)
(-45321.4 427449 0)
(-54015.4 432726 0)
(-63026.1 437867 0)
(-72356.3 442860 0)
(-82008.6 447689 0)
(-91984 452339 0)
(-102284 456796 0)
(-112908 461045 0)
(662.268 -7.72807 0)
(4190.76 1052.57 0)
(15751.5 5923.96 0)
(42446.3 25576.9 0)
(79207.3 85252.1 0)
(95958 194907 0)
(74851.6 301576 0)
(38405.3 364714 0)
(10359.3 395730 0)
(-6081.39 410436 0)
(-15668.9 418134 0)
(-23513 424029 0)
(-31676.2 429832 0)
(-40162.7 435530 0)
(-48976.2 441110 0)
(-58119.5 446558 0)
(-67595.9 451858 0)
(-77408.3 456996 0)
(-87557.9 461958 0)
(-98046.2 466728 0)
(-108874 471289 0)
(662.874 -8.85661 0)
(4197.13 1042.45 0)
(15805.4 5860.31 0)
(42798 25302.8 0)
(80672.4 84651.2 0)
(99478.6 194998 0)
(80120.4 304104 0)
(44285.6 369530 0)
(16251.9 401903 0)
(-281.72 417313 0)
(-9949.72 425396 0)
(-17871.7 431594 0)
(-26125.3 437705 0)
(-34715.1 443716 0)
(-43645.1 449611 0)
(-52918.6 455377 0)
(-62539.2 460998 0)
(-72510 466460 0)
(-82832.7 471747 0)
(-93508.9 476842 0)
(-104540 481730 0)
(663.475 -9.98625 0)
(4203.43 1032.31 0)
(15858.7 5796.34 0)
(43147.4 25024.8 0)
(82143 84023.2 0)
(103060 195010 0)
(85547.7 306554 0)
(50400.4 374326 0)
(22413.2 408101 0)
(5800.57 424240 0)
(-3941.46 432723 0)
(-11936.9 439237 0)
(-20276.8 445668 0)
(-28966.2 452003 0)
(-38009.6 458227 0)
(-47410.4 464325 0)
(-57172.8 470281 0)
(-67300.2 476080 0)
(-77794.6 481705 0)
(-88657.7 487141 0)
(-99891 492370 0)
(664.071 -11.1169 0)
(4209.66 1022.16 0)
(15911.5 5732.07 0)
(43494.4 24742.9 0)
(83618.2 83367.9 0)
(106701 194941 0)
(91135.9 308919 0)
(56756.4 379095 0)
(28852.4 414318 0)
(12175.6 431213 0)
(2366.55 440111 0)
(-5697.42 446952 0)
(-14119.2 453717 0)
(-22904.2 460389 0)
(-32057.3 466955 0)
(-41582.5 473398 0)
(-51484.1 479702 0)
(-61766 485852 0)
(-72430.2 491831 0)
(-83479.1 497622 0)
(-94914.1 503208 0)
(664.662 -12.2485 0)
(4215.82 1011.99 0)
(15963.6 5667.5 0)
(43838.9 24457.2 0)
(85097.2 82685.1 0)
(110401 194786 0)
(96887 311193 0)
(63360.1 383828 0)
(35578.5 420548 0)
(18853.9 438226 0)
(8985.26 447554 0)
(858.052 454736 0)
(-7640.7 461846 0)
(-16516.9 468869 0)
(-25776 475790 0)
(-35422.1 482593 0)
(-45460 489260 0)
(-55893.9 495776 0)
(-66726.1 502123 0)
(-77959.2 508285 0)
(-89595 514242 0)
(665.248 -13.3812 0)
(4221.9 1001.8 0)
(16015.1 5602.63 0)
(44180.8 24167.8 0)
(86579.5 81974.5 0)
(114159 194542 0)
(102804 313366 0)
(70219.4 388519 0)
(42602.3 426784 0)
(25847.2 445274 0)
(15927.2 455048 0)
(7742.48 462583 0)
(-828.038 470052 0)
(-9790.76 477440 0)
(-19151.5 484731 0)
(-28914.8 491907 0)
(-39085.9 498952 0)
(-49669.1 505850 0)
(-60667.2 512581 0)
(-72082.9 519128 0)
(-83918.2 525472 0)
(665.828 -14.5149 0)
(4227.92 991.59 0)
(16066 5537.47 0)
(44519.9 23874.5 0)
(88064.1 81235.9 0)
(117974 194208 0)
(108889 315432 0)
(77341.2 393159 0)
(49933.6 433019 0)
(33166.7 452349 0)
(23204.1 462587 0)
(14968.1 470488 0)
(6331.51 478330 0)
(-2712.57 486097 0)
(-12170.4 493772 0)
(-22046.9 501338 0)
(-32347.6 508776 0)
(-43077.3 516070 0)
(-54238.9 523201 0)
(-65835.4 530150 0)
(-77868.9 536898 0)
(666.403 -15.6495 0)
(4233.87 981.365 0)
(16116.2 5472.01 0)
(44856.1 23577.6 0)
(89550.4 80469.1 0)
(121846 193778 0)
(115144 317381 0)
(84732.7 397738 0)
(57582.9 439244 0)
(40824.4 459446 0)
(30828.7 470164 0)
(22548 478445 0)
(13851.4 486675 0)
(4731.5 494836 0)
(-4818.46 502910 0)
(-14803.9 510880 0)
(-25230.5 518728 0)
(-36103.5 526435 0)
(-47426.1 533982 0)
(-59201.3 541349 0)
(-71431.6 548518 0)
(666.973 -16.7851 0)
(4239.75 971.124 0)
(16165.8 5406.27 0)
(45189.3 23276.9 0)
(91037.4 79673.9 0)
(125773 193251 0)
(121572 319204 0)
(92401.4 402247 0)
(65561.1 445452 0)
(48832.6 466555 0)
(38813.9 477772 0)
(30495.7 486448 0)
(21745.7 495080 0)
(12555.9 503650 0)
(2919.11 512140 0)
(-7170.54 520531 0)
(-17719.2 528805 0)
(-28732.2 536941 0)
(-40213 544921 0)
(-52164.8 552724 0)
(-64590.3 560331 0)
(667.538 -17.9217 0)
(4245.56 960.867 0)
(16214.8 5340.25 0)
(45519.3 22972.5 0)
(92524.2 78850.2 0)
(129753 192624 0)
(128173 320892 0)
(100354 406675 0)
(73878.7 451633 0)
(57203.5 473671 0)
(47172.8 485403 0)
(38824.8 494489 0)
(30028.5 503539 0)
(20775.2 512535 0)
(11057.2 521457 0)
(868.265 530286 0)
(-9798.08 539002 0)
(-20947.5 547586 0)
(-32583.7 556016 0)
(-44710 564273 0)
(-57328.9 572334 0)
(668.098 -19.0592 0)
(4251.29 950.593 0)
(16263.1 5273.95 0)
(45846.1 22664.5 0)
(94010.1 77997.8 0)
(133785 191892 0)
(134949 322435 0)
(108600 411011 0)
(82548.4 457778 0)
(65951.5 480783 0)
(55920.5 493052 0)
(47551 502563 0)
(38715.8 512048 0)
(29405.8 521485 0)
(19612.7 530857 0)
(9329.78 540141 0)
(-1449.8 549318 0)
(-12732 558366 0)
(-24520.6 567266 0)
(-36819 575994 0)
(-49629.8 584529 0)
(668.652 -20.1977 0)
(4256.95 940.303 0)
(16310.7 5207.37 0)
(46169.3 22352.9 0)
(95494 77116.5 0)
(137868 191053 0)
(141903 323823 0)
(117145 415242 0)
(91581.5 463876 0)
(75089.8 487883 0)
(65071.1 500708 0)
(56689 510662 0)
(47823.2 520597 0)
(38463.8 530494 0)
(28602 540333 0)
(18230.6 550091 0)
(7342.5 559747 0)
(-4068.55 569280 0)
(-16006.5 578666 0)
(-28474.8 587885 0)
(-41476 596913 0)
(669.201 -21.3371 0)
(4262.54 929.997 0)
(16357.7 5140.52 0)
(46489 22037.7 0)
(96974.8 76206.4 0)
(141998 190104 0)
(149034 325045 0)
(125998 419357 0)
(100990 469915 0)
(84632.2 494961 0)
(74639.5 508363 0)
(66254.3 518775 0)
(57366.5 529179 0)
(47965.5 539554 0)
(38041.8 549879 0)
(27587.9 560130 0)
(16596.2 570285 0)
(5060.3 580321 0)
(-7023.9 590216 0)
(-19659.8 599944 0)
(-32849.9 609484 0)
(669.745 -22.4774 0)
(4268.06 919.675 0)
(16403.9 5073.41 0)
(46805 21718.9 0)
(98451.8 75267.1 0)
(146174 189041 0)
(156345 326090 0)
(135166 423341 0)
(110787 475885 0)
(94594.9 502006 0)
(84642.7 516008 0)
(76264.7 526896 0)
(67364.2 537788 0)
(57929.9 548660 0)
(47951.6 559490 0)
(37421.4 570254 0)
(26331.3 580929 0)
(14674.6 591489 0)
(2447.14 601912 0)
(-10354.3 612171 0)
(-23732.1 622243 0)
(670.283 -23.6187 0)
(4273.51 909.337 0)
(16449.5 5006.03 0)
(47117.1 21396.6 0)
(99923.8 74298.8 0)
(150394 187862 0)
(163834 326946 0)