/*--------------------------------*- C++ -*----------------------------------*\
| =========                 |                                                 |
| \\      /  F ield         | OpenFOAM: The Open Source CFD Toolbox           |
|  \\    /   O peration     | Version:  2406                                  |
|   \\  /    A nd           | Website:  www.openfoam.com                      |
|    \\/     M anipulation  |                                                 |
\*---------------------------------------------------------------------------*/
FoamFile
{
    version     2.0;
    format      ascii;
    arch        "LSB;label=32;scalar=64";
    class       volScalarField;
    location    "0.0001/dielectric";
    object      voltExt;
}
// * * * * * * * * * * * * * * * * * * * * * * * * * * * * * * * * * * * * * //

dimensions      [1 2 -3 0 0 -1 0];

internalField   nonuniform List<scalar> 
3038
(
-4.097161268e-11
-6.684206711e-11
-1.193187941e-10
-1.978454343e-10
-2.900775193e-10
-3.814421431e-10
-4.632386288e-10
-5.314223643e-10
-5.846712718e-10
-6.237300778e-10
-6.533420958e-10
-6.807115659e-10
-7.085314974e-10
-7.355300569e-10
-4.091668378e-11
-6.678461311e-11
-1.193142978e-10
-1.980340888e-10
-2.906741676e-10
-3.82760579e-10
-4.657310388e-10
-5.356411553e-10
-5.910966074e-10
-6.325388232e-10
-6.645261506e-10
-6.946212456e-10
-7.258117686e-10
-7.565617519e-10
-4.08591599e-11
-6.671859761e-11
-1.192842844e-10
-1.981660139e-10
-2.911665711e-10
-3.838981945e-10
-4.679243637e-10
-5.394107918e-10
-5.969397735e-10
-6.407156731e-10
-6.751384669e-10
-7.081735164e-10
-7.432360305e-10
-7.786019432e-10
-4.079904198e-11
-6.664401111e-11
-1.192286763e-10
-1.982408657e-10
-2.915533998e-10
-3.848500511e-10
-4.698020742e-10
-5.426847347e-10
-6.020964888e-10
-6.480792654e-10
-6.849241809e-10
-7.210639385e-10
-7.605609327e-10
-8.017730005e-10
-4.073633153e-11
-6.656084709e-11
-1.191474067e-10
-1.982583363e-10
-2.918334774e-10
-3.85611804e-10
-4.71349406e-10
-5.454197344e-10
-6.064628143e-10
-6.544304384e-10
-6.935702786e-10
-7.328581674e-10
-7.773250511e-10
-8.260839104e-10
-4.067103065e-11
-6.646910206e-11
-1.190404206e-10
-1.982181563e-10
-2.920057928e-10
-3.861797772e-10
-4.725537967e-10
-5.475777991e-10
-6.099413107e-10
-6.595634929e-10
-7.007126332e-10
-7.429616246e-10
-7.926873188e-10
-8.511221491e-10
-4.0603142e-11
-6.636877567e-11
-1.189076744e-10
-1.981200959e-10
-2.920695077e-10
-3.865510239e-10
-4.734052524e-10
-5.491280351e-10
-6.12448151e-10
-6.632849027e-10
-7.059650661e-10
-7.506235339e-10
-8.052052706e-10
-8.751279958e-10
-7.587532191e-10
-7.773050331e-10
-7.919575663e-10
-8.030616558e-10
-8.111933357e-10
-8.168967936e-10
-8.205995302e-10
-8.226059617e-10
-8.231152528e-10
-8.222408198e-10
-8.200244304e-10
-8.164435412e-10
-8.114119366e-10
-8.047735881e-10
-7.962890105e-10
-7.856127639e-10
-7.722608096e-10
-7.555689246e-10
-7.346528145e-10
-7.084063774e-10
-6.756284569e-10
-6.354317596e-10
-7.829651355e-10
-8.033608389e-10
-8.187829181e-10
-8.300133964e-10
-8.379875594e-10
-8.434662851e-10
-8.469901067e-10
-8.489179457e-10
-8.494743985e-10
-8.487853634e-10
-8.469002627e-10
-8.43803169e-10
-8.394148051e-10
-8.335859824e-10
-8.260813999e-10
-8.165509061e-10
-8.044835231e-10
-7.891391333e-10
-7.694593442e-10
-7.439896999e-10
-7.109393168e-10
-6.686996845e-10
-8.090532579e-10
-8.313812047e-10
-8.472639755e-10
-8.582515721e-10
-8.657675402e-10
-8.708079862e-10
-8.740111246e-10
-8.757716538e-10
-8.763255301e-10
-8.758023664e-10
-8.742548486e-10
-8.716728763e-10
-8.679867025e-10
-8.630603789e-10
-8.566741421e-10
-8.484912949e-10
-8.380009098e-10
-8.244221931e-10
-8.065533873e-10
-7.825681209e-10
-7.498808049e-10
-7.056120116e-10
-8.377773605e-10
-8.619476376e-10
-8.77678727e-10
-8.878613644e-10
-8.945255707e-10
-8.988755667e-10
-9.016020897e-10
-9.031020887e-10
-9.036021748e-10
-9.032240609e-10
-9.020181132e-10
-8.999788189e-10
-8.970485496e-10
-8.931115562e-10
-8.879766975e-10
-8.81343368e-10
-8.727384772e-10
-8.614002528e-10
-8.460640356e-10
-8.245847193e-10
-7.9339814e-10
-7.474220071e-10
-8.70498897e-10
-8.958479373e-10
-9.102851296e-10
-9.188611109e-10
-9.241978652e-10
-9.275845138e-10
-9.296775935e-10
-9.308275294e-10
-9.312257334e-10
-9.309727662e-10
-9.301105657e-10
-9.286367194e-10
-9.265080902e-10
-9.236359505e-10
-9.198712437e-10
-9.149743549e-10
-9.085559398e-10
-8.999578809e-10
-8.880017914e-10
-8.704366344e-10
-8.42758813e-10
-7.963558435e-10
-9.099173295e-10
-9.340595598e-10
-9.452071367e-10
-9.511406187e-10
-9.546406528e-10
-9.568045706e-10
-9.58125753e-10
-9.588499931e-10
-9.591065761e-10
-9.5896218e-10
-9.584446763e-10
-9.575533199e-10
-9.56261387e-10
-9.545129943e-10
-9.522131128e-10
-9.492064968e-10
-9.452345821e-10
-9.398422727e-10
-9.321557019e-10
-9.202840852e-10
-8.995178249e-10
-8.568074161e-10
-9.619204387e-10
-9.774053946e-10
-9.821892716e-10
-9.843816296e-10
-9.856114018e-10
-9.863576566e-10
-9.868098233e-10
-9.87057279e-10
-9.87145889e-10
-9.870990461e-10
-9.869265297e-10
-9.866282191e-10
-9.861950605e-10
-9.856079598e-10
-9.848342411e-10
-9.838200569e-10
-9.824744514e-10
-9.806331569e-10
-9.779631572e-10
-9.736458538e-10
-9.649470347e-10
-9.383760171e-10
-5.885200371e-10
-5.368255348e-10
-4.816217475e-10
-4.241299386e-10
-3.648102316e-10
-3.034163014e-10
-2.390590319e-10
-1.703375076e-10
-9.671867836e-11
-6.17807764e-10
-5.614832594e-10
-5.020087591e-10
-4.411434151e-10
-3.795921117e-10
-3.173596543e-10
-2.541288994e-10
-1.898748155e-10
-1.266934854e-10
-6.495768368e-10
-5.874427054e-10
-5.229705158e-10
-4.584403289e-10
-3.946554528e-10
-3.317155501e-10
-2.696216697e-10
-2.08968805e-10
-1.52199007e-10
-6.841265772e-10
-6.1436836e-10
-5.439562363e-10
-4.754292213e-10
-4.093695798e-10
-3.457217994e-10
-2.845188998e-10
-2.264580534e-10
-1.735700173e-10
-7.216410427e-10
-6.415641951e-10
-5.641628783e-10
-4.913984171e-10
-4.23086954e-10
-3.58717656e-10
-2.981176119e-10
-2.418095371e-10
-1.91265043e-10
-7.617183971e-10
-6.676542917e-10
-5.824532386e-10
-5.055273323e-10
-4.351751699e-10
-3.701558278e-10
-3.099426194e-10
-2.547791371e-10
-2.056483801e-10
-8.018137521e-10
-6.900815932e-10
-5.973237408e-10
-5.169395131e-10
-4.450594788e-10
-3.796077594e-10
-3.196807209e-10
-2.652555801e-10
-2.169687342e-10
-3.141416612e-11
-1.728860298e-11
-1.196681158e-11
-9.044169509e-12
-7.138493133e-12
-5.794833908e-12
-4.806369497e-12
-4.058797504e-12
-3.481474144e-12
-3.027770445e-12
-2.66562971e-12
-2.372411556e-12
-2.131813749e-12
-1.931919076e-12
-1.76390401e-12
-1.621160536e-12
-1.498686964e-12
-1.392659112e-12
-1.300124847e-12
-1.218784252e-12
-1.146830081e-12
-1.082831279e-12
-1.025647476e-12
-9.743658873e-13
-9.282547292e-13
-8.86729258e-13
-8.493276451e-13
-8.15694683e-13
-7.855721932e-13
-7.587959324e-13
-7.352994951e-13
-7.151263313e-13
-6.984521054e-13
-6.856216204e-13
-6.772077591e-13
-6.74105571e-13
-6.776865724e-13
-6.900664391e-13
-7.146125531e-13
-7.570359904e-13
-8.281901778e-13
-9.531985309e-13
-1.211940674e-12
-1.985345949e-12
-7.373167845e-11
-4.838742728e-11
-3.495252973e-11
-2.673070612e-11
-2.119342847e-11
-1.724416662e-11
-1.432393417e-11
-1.210912937e-11
-1.039558218e-11
-9.047136459e-12
-7.969659282e-12
-7.096445692e-12
-6.379360665e-12
-5.783162758e-12
-5.281728345e-12
-4.855474062e-12
-4.489564262e-12
-4.172647076e-12
-3.895952968e-12
-3.652645219e-12
-3.437348112e-12
-3.24580226e-12
-3.074611494e-12
-2.921055858e-12
-2.782953423e-12
-2.658559487e-12
-2.546495003e-12
-2.445698142e-12
-2.35539559e-12
-2.275093078e-12
-2.204586643e-12
-2.143997808e-12
-2.093838989e-12
-2.055121326e-12
-2.029526319e-12
-2.019678186e-12
-2.029585729e-12
-2.06539541e-12
-2.136777825e-12
-2.259760366e-12
-2.463297143e-12
-2.806762421e-12
-3.432482418e-12
-4.727453336e-12
-1.049023216e-10
-7.478085366e-11
-5.587856273e-11
-4.33565816e-11
-3.462094402e-11
-2.8286936e-11
-2.35627904e-11
-1.996141979e-11
-1.716544336e-11
-1.495944691e-11
-1.31929879e-11
-1.175879663e-11
-1.057914801e-11
-9.596968132e-12
-8.769851637e-12
-8.065948021e-12
-7.461087055e-12
-6.936745336e-12
-6.478592533e-12
-6.075441551e-12
-5.718484376e-12
-5.400733293e-12
-5.11661021e-12
-4.861642611e-12
-4.632238244e-12
-4.425520728e-12
-4.239212932e-12
-4.07155775e-12
-3.921270486e-12
-3.787522394e-12
-3.669958066e-12
-3.568751275e-12
-3.48470862e-12
-3.419439823e-12
-3.375627463e-12
-3.357450421e-12
-3.371257266e-12
-3.426677319e-12
-3.538564869e-12
-3.730667522e-12
-4.04312879e-12
-4.548820427e-12
-5.388619157e-12
-6.830161364e-12
-1.290770338e-10
-9.674156586e-11
-7.428373105e-11
-5.848647238e-11
-4.709957832e-11
-3.869365296e-11
-3.235804263e-11
-2.749550281e-11
-2.370220651e-11
-2.069809841e-11
-1.828503921e-11
-1.632057903e-11
-1.470091644e-11
-1.334950878e-11
-1.220929422e-11
-1.123729086e-11
-1.040079729e-11
-9.674692925e-12
-9.039501435e-12
-8.479987257e-12
-7.98413086e-12
-7.542378459e-12
-7.147090167e-12
-6.792129919e-12
-6.472560108e-12
-6.18441875e-12
-5.924561929e-12
-5.690556078e-12
-5.480611636e-12
-5.293558527e-12
-5.128867848e-12
-4.98672472e-12
-4.868162713e-12
-4.775283663e-12
-4.711604057e-12
-4.682591452e-12
-4.696495118e-12
-4.765658771e-12
-4.908670611e-12
-5.154033597e-12
-5.546626368e-12
-6.158883035e-12
-7.107042474e-12
-8.556864344e-12
-1.482507557e-10
-1.147995948e-10
-9.005728751e-11
-7.187381602e-11
-5.840042395e-11
-4.828238317e-11
-4.057128054e-11
-3.460712372e-11
-2.992715718e-11
-2.620322196e-11
-2.319984429e-11
-2.074612698e-11
-1.871669238e-11
-1.701860207e-11
-1.558227166e-11
-1.435508894e-11
-1.329688797e-11
-1.237671613e-11
-1.157050559e-11
-1.085937718e-11
-1.022839632e-11
-9.665661171e-12
-9.161632079e-12
-8.70863008e-12
-8.300460252e-12
-7.93213727e-12
-7.599692992e-12
-7.300043607e-12
-7.030904381e-12
-6.790755361e-12
-6.578865409e-12
-6.39537793e-12
-6.241466715e-12
-6.119589017e-12
-6.033883448e-12
-5.990778092e-12
-5.999903991e-12
-6.075469217e-12
-6.238345598e-12
-6.519239115e-12
-6.963341343e-12
-7.636213852e-12
-8.627245329e-12
-1.003568414e-11
-1.634551262e-10
-1.294167484e-10
-1.032394473e-10
-8.340021078e-11
-6.837557588e-11
-5.692013845e-11
-4.809430624e-11
-4.121136634e-11
-3.577438421e-11
-3.142365674e-11
-2.789748144e-11
-2.500404327e-11
-2.260155633e-11
-2.058427597e-11
-1.887261667e-11
-1.740612406e-11
-1.613844499e-11
-1.503371485e-11
-1.406394438e-11
-1.320710239e-11
-1.244569945e-11
-1.176575068e-11
-1.115601475e-11
-1.060741864e-11
-1.011261852e-11
-9.665681762e-12
-9.261868507e-12
-8.897478375e-12
-8.569745018e-12
-8.276789132e-12
-8.017643516e-12
-7.792348363e-12
-7.602117811e-12
-7.449607503e-12
-7.33933811e-12
-7.278337314e-12
-7.277074496e-12
-7.350796589e-12
-7.521406524e-12
-7.819979538e-12
-8.289695583e-12
-8.987849087e-12
-9.982537536e-12
-1.133407038e-11
-1.752501534e-10
-1.409279526e-10
-1.139174072e-10
-9.302433254e-11
-7.694051849e-11
-6.451892009e-11
-5.484968006e-11
-4.724429664e-11
-4.119241799e-11
-3.631829717e-11
-3.234511056e-11
-2.906797134e-11
-2.633421199e-11
-2.402918603e-11
-2.206608354e-11
-2.037859538e-11
-1.891560848e-11
-1.763737872e-11
-1.651275297e-11
-1.551710757e-11
-1.463080806e-11
-1.383808716e-11
-1.312622921e-11
-1.248494056e-11
-1.190585414e-11
-1.138217634e-11
-1.090845611e-11
-1.048041821e-11
-1.009483322e-11
-9.749452606e-12
-9.443035484e-12
-9.1754531e-12
-8.94785435e-12
-8.762926117e-12
-8.625317663e-12
-8.542286907e-12
-8.524612938e-12
-8.587837504e-12
-8.753899414e-12
-9.053090035e-12
-9.525792433e-12
-1.022231265e-11
-1.1196825e-11
-1.248928433e-11
-5.887387165e-12
-1.014498478e-11
-1.380899767e-11
-1.691642573e-11
-1.957763151e-11
-2.188241948e-11
-2.389657388e-11
-2.566827225e-11
-2.723368636e-11
-2.862080866e-11
-2.985193406e-11
-3.094526695e-11
-3.19159807e-11
-3.277693486e-11
-3.353917521e-11
-3.421229265e-11
-3.48046887e-11
-3.532377687e-11
-3.577613897e-11
-3.616764869e-11
-3.650357135e-11
-3.678864522e-11
-3.702714899e-11
-3.722295833e-11
-3.737959361e-11
-3.750026051e-11
-3.758788482e-11
-3.764514226e-11
-3.767448438e-11
-3.767816113e-11
-3.765824067e-11
-3.761662678e-11
-3.755507429e-11
-3.747520267e-11
-3.7378508e-11
-3.726637373e-11
-3.714008024e-11
-3.700081348e-11
-3.684967281e-11
-3.668767802e-11
-3.651577568e-11
-3.633484489e-11
-3.614570236e-11
-3.594910717e-11
-3.574576497e-11
-3.553633193e-11
-3.532141835e-11
-3.510159199e-11
-3.48773811e-11
-3.464927722e-11
-3.44177377e-11
-3.4183188e-11
-3.394602383e-11
-3.37066132e-11
-3.34652982e-11
-3.322239679e-11
-3.297820445e-11
-3.273299565e-11
-3.248702529e-11
-3.224053002e-11
-3.199372937e-11
-3.174682692e-11
-3.15000113e-11
-3.125345714e-11
-3.100732598e-11
-3.076176711e-11
-3.051691832e-11
-3.027290668e-11
-3.002984926e-11
-2.97878537e-11
-2.954701891e-11
-2.930743564e-11
-2.906918694e-11
-2.883234874e-11
-2.859699032e-11
-2.836317468e-11
-2.813095899e-11
-2.790039502e-11
-2.767152937e-11
-2.74444039e-11
-2.721905602e-11
-2.699551892e-11
-2.67738219e-11
-2.65539906e-11
-2.633604723e-11
-2.612001085e-11
-2.590589753e-11
-2.569372057e-11
-2.548349073e-11
-2.527521638e-11
-2.506890367e-11
-2.486455671e-11
-2.466217771e-11
-2.44617671e-11
-2.426332369e-11
-2.406684476e-11
-2.387232621e-11
-2.367976262e-11
-2.348914736e-11
-2.330047271e-11
-2.311372991e-11
-2.292890925e-11
-2.274600016e-11
-2.256499127e-11
-2.238587045e-11
-2.220862495e-11
-2.203324137e-11
-2.185970575e-11
-2.168800365e-11
-2.151812018e-11
-2.135004001e-11
-2.118374748e-11
-2.101922659e-11
-2.085646105e-11
-2.069543434e-11
-2.05361297e-11
-2.037853019e-11
-2.022261874e-11
-2.006837811e-11
-1.991579098e-11
-1.976483995e-11
-1.961550755e-11
-1.946777625e-11
-1.932162855e-11
-1.917704691e-11
-1.90340138e-11
-1.889251172e-11
-1.875252323e-11
-1.861403092e-11
-1.847701745e-11
-1.834146556e-11
-1.820735806e-11
-1.807467787e-11
-1.794340801e-11
-1.781353159e-11
-1.768503186e-11
-1.755789218e-11
-1.743209604e-11
-1.730762706e-11
-1.718446899e-11
-1.706260573e-11
-1.694202134e-11
-1.682269999e-11
-1.670462602e-11
-1.658778394e-11
-1.647215839e-11
-1.635773418e-11
-1.624449628e-11
-1.613242981e-11
-1.602152006e-11
-1.591175249e-11
-1.580311272e-11
-1.569558652e-11
-1.558915985e-11
-1.548381884e-11
-1.537954975e-11
-1.527633906e-11
-1.517417337e-11
-1.507303948e-11
-1.497292435e-11
-1.487381512e-11
-1.477569907e-11
-1.467856368e-11
-1.458239658e-11
-1.448718557e-11
-1.439291861e-11
-1.429958384e-11
-1.420716955e-11
-1.411566416e-11
-1.40250563e-11
-1.393533469e-11
-1.384648825e-11
-1.375850602e-11
-1.367137717e-11
-1.358509102e-11
-1.349963702e-11
-1.341500477e-11
-1.333118397e-11
-1.324816448e-11
-1.316593626e-11
-1.308448942e-11
-1.300381421e-11
-1.2923901e-11
-1.284474029e-11
-1.276632272e-11
-1.268863907e-11
-1.261168026e-11
-1.253543733e-11
-1.245990148e-11
-1.238506401e-11
-1.231091637e-11
-1.223745014e-11
-1.2164657e-11
-1.209252876e-11
-1.202105734e-11
-1.195023477e-11
-1.188005321e-11
-1.18105049e-11
-1.174158219e-11
-1.167327756e-11
-1.160558357e-11
-1.15384929e-11
-1.147199834e-11
-1.140609275e-11
-1.134076913e-11
-1.127602056e-11
-1.12118402e-11
-1.114822134e-11
-1.108515732e-11
-1.102264158e-11
-1.096066765e-11
-1.089922914e-11
-1.083831973e-11
-1.077793322e-11
-1.071806345e-11
-1.06587044e-11
-1.059985008e-11
-1.054149464e-11
-1.048363228e-11
-1.04262573e-11
-1.036936411e-11
-1.03129472e-11
-1.025700115e-11
-1.020152066e-11
-1.014650053e-11
-1.009193567e-11
-1.003782113e-11
-9.98415204e-12
-9.930923651e-12
-9.878131292e-12
-9.825770355e-12
-9.773836254e-12
-9.722324395e-12
-9.671230145e-12
-9.620548797e-12
-9.570275571e-12
-9.520405622e-12
-9.470934077e-12
-9.421856097e-12
-9.373166963e-12
-9.324862154e-12
-9.276937427e-12
-9.229388858e-12
-9.18221283e-12
-9.135405958e-12
-9.088964969e-12
-9.042886519e-12
-8.997167031e-12
-8.951802567e-12
-8.906788793e-12
-8.862121059e-12
-8.817794608e-12
-8.773804843e-12
-8.730147606e-12
-8.686819376e-12
-8.643817294e-12
-8.601139015e-12
-8.558782402e-12
-8.516745153e-12
-8.475024507e-12
-8.433617134e-12
-8.392519252e-12
-8.351726943e-12
-8.311236524e-12
-8.271044805e-12
-8.231149107e-12
-8.191547038e-12
-8.15223612e-12
-8.113213478e-12
-8.074475764e-12
-8.03601937e-12
-7.997840835e-12
-7.95993726e-12
-7.922306471e-12
-7.884946871e-12
-7.847857028e-12
-7.811035199e-12
-7.774479042e-12
-7.738185624e-12
-7.702151672e-12
-7.666373879e-12
-7.6308491e-12
-7.595574386e-12
-7.560546909e-12
-7.525763913e-12
-7.491222727e-12
-7.456920833e-12
-7.422855946e-12
-7.389026014e-12
-7.355429119e-12
-7.322063313e-12
-7.288926529e-12
-7.256016656e-12
-7.223331748e-12
-7.190870184e-12
-7.158630673e-12
-7.126612048e-12
-7.094813012e-12
-7.063232065e-12
-7.031866814e-12
-7.000712478e-12
-6.969761608e-12
-6.939004559e-12
-6.90842958e-12
-6.87802459e-12
-6.847786618e-12
-6.816124952e-12
-6.781351559e-12
-6.743197398e-12
-6.701415369e-12
-6.655735885e-12
-6.605874594e-12
-6.551505774e-12
-6.492280946e-12
-6.427799478e-12
-6.357637008e-12
-6.281354913e-12
-6.19852872e-12
-6.108736037e-12
-6.011608735e-12
-5.906797832e-12
-5.793998459e-12
-5.672962041e-12
-5.543466163e-12
-5.405374316e-12
-5.258599116e-12
-5.103145638e-12
-4.939145853e-12
-4.766810611e-12
-4.586564346e-12
-4.398942965e-12
-4.204708567e-12
-4.004827027e-12
-3.800491791e-12
-3.593151303e-12
-3.384567166e-12
-3.176767763e-12
-2.972232319e-12
-2.77379067e-12
-2.584898589e-12
-2.409596836e-12
-2.252884764e-12
-2.120867369e-12
-2.021385087e-12
-1.964650691e-12
-7.655065722e-12
-1.108089416e-11
-1.430761957e-11
-1.718730561e-11
-1.972650435e-11
-2.196466561e-11
-2.394239283e-11
-2.569463065e-11
-2.725028269e-11
-2.863320944e-11
-2.986329821e-11
-3.095732848e-11
-3.192962414e-11
-3.279253895e-11
-3.35568211e-11
-3.423189113e-11
-3.482605797e-11
-3.534669021e-11
-3.580035347e-11
-3.61929225e-11
-3.652967346e-11
-3.681536074e-11
-3.705428158e-11
-3.725033089e-11
-3.740704804e-11
-3.752765684e-11
-3.761510002e-11
-3.767206881e-11
-3.770102876e-11
-3.770424235e-11
-3.768378894e-11
-3.764158237e-11
-3.757938657e-11
-3.749882914e-11
-3.740141351e-11
-3.728852955e-11
-3.716146328e-11
-3.702140558e-11
-3.686946012e-11
-3.670665056e-11
-3.653392694e-11
-3.63521715e-11
-3.616220374e-11
-3.596478519e-11
-3.576062361e-11
-3.555037697e-11
-3.533465711e-11
-3.511403317e-11
-3.488903459e-11
-3.466015398e-11
-3.442784963e-11
-3.419254781e-11
-3.395464491e-11
-3.371450942e-11
-3.347248383e-11
-3.322888639e-11
-3.29840128e-11
-3.27381377e-11
-3.249151614e-11
-3.224438485e-11
-3.199696345e-11
-3.17494555e-11
-3.150204962e-11
-3.125492033e-11
-3.100822902e-11
-3.07621248e-11
-3.051674526e-11
-3.027221725e-11
-3.002865761e-11
-2.978617379e-11
-2.954486447e-11
-2.930482019e-11
-2.906612381e-11
-2.882885108e-11
-2.859307104e-11
-2.83588465e-11
-2.812623444e-11
-2.789528636e-11
-2.766604865e-11
-2.743856293e-11
-2.721286633e-11
-2.698899178e-11
-2.67669683e-11
-2.654682126e-11
-2.632857261e-11
-2.61122411e-11
-2.589784255e-11
-2.568539e-11
-2.547489395e-11
-2.526636252e-11
-2.505980164e-11
-2.485521518e-11
-2.465260514e-11
-2.445197177e-11
-2.425331365e-11
-2.405662788e-11
-2.386191016e-11
-2.366915488e-11
-2.347835524e-11
-2.328950333e-11
-2.310259019e-11
-2.291760594e-11
-2.273453983e-11
-2.255338029e-11
-2.237411504e-11
-2.219673112e-11
-2.202121496e-11
-2.184755245e-11
-2.167572896e-11
-2.150572944e-11
-2.133753841e-11
-2.117114003e-11
-2.100651817e-11
-2.084365638e-11
-2.068253799e-11
-2.052314612e-11
-2.036546368e-11
-2.020947346e-11
-2.005515811e-11
-1.990250017e-11
-1.975148213e-11
-1.960208639e-11
-1.945429533e-11
-1.930809132e-11
-1.916345672e-11
-1.90203739e-11
-1.887882526e-11
-1.873879326e-11
-1.86002604e-11
-1.846320924e-11
-1.832762243e-11
-1.819348271e-11
-1.806077291e-11
-1.792947596e-11
-1.77995749e-11
-1.767105291e-11
-1.754389326e-11
-1.741807937e-11
-1.729359479e-11
-1.717042321e-11
-1.704854846e-11
-1.692795452e-11
-1.680862551e-11
-1.669054571e-11
-1.657369956e-11
-1.645807165e-11
-1.634364671e-11
-1.623040967e-11
-1.61183456e-11
-1.600743972e-11
-1.589767745e-11
-1.578904434e-11
-1.568152612e-11
-1.557510871e-11
-1.546977817e-11
-1.536552073e-11
-1.526232279e-11
-1.516017095e-11
-1.505905194e-11
-1.495895268e-11
-1.485986026e-11
-1.476176195e-11
-1.466464515e-11
-1.456849749e-11
-1.447330672e-11
-1.437906077e-11
-1.428574776e-11
-1.419335594e-11
-1.410187373e-11
-1.401128973e-11
-1.392159265e-11
-1.383277138e-11
-1.374481496e-11
-1.365771255e-11
-1.357145346e-11
-1.348602712e-11
-1.340142312e-11
-1.331763114e-11
-1.323464103e-11
-1.315244272e-11
-1.307102632e-11
-1.299038202e-11
-1.291050018e-11
-1.283137127e-11
-1.27529859e-11
-1.267533483e-11
-1.259840894e-11
-1.252219926e-11
-1.244669695e-11
-1.237189331e-11
-1.229777977e-11
-1.222434788e-11
-1.215158933e-11
-1.207949591e-11
-1.200805953e-11
-1.193727223e-11
-1.186712612e-11
-1.179761345e-11
-1.172872657e-11
-1.166045792e-11
-1.159280006e-11
-1.152574565e-11
-1.145928747e-11
-1.139341838e-11
-1.132813136e-11
-1.126341948e-11
-1.119927592e-11
-1.113569393e-11
-1.107266687e-11
-1.101018815e-11
-1.094825131e-11
-1.088684994e-11
-1.082597772e-11
-1.076562843e-11
-1.070579592e-11
-1.064647413e-11
-1.058765712e-11
-1.0529339e-11
-1.047151401e-11
-1.041417646e-11
-1.035732076e-11
-1.030094142e-11
-1.024503304e-11
-1.018959031e-11
-1.013460803e-11
-1.008008109e-11
-1.002600451e-11
-9.972373379e-12
-9.919182905e-12
-9.866428361e-12
-9.814105086e-12
-9.762208447e-12
-9.710733819e-12
-9.659676552e-12
-9.609031956e-12
-9.558795288e-12
-9.508961774e-12
-9.459526627e-12
-9.410485106e-12
-9.361832579e-12
-9.313564583e-12
-9.265676887e-12
-9.218165516e-12
-9.171026739e-12
-9.12425701e-12
-9.07785287e-12
-9.031810816e-12
-8.986127174e-12
-8.940798021e-12
-8.895819152e-12
-8.851186158e-12
-8.806894573e-12
-8.762940073e-12
-8.719318671e-12
-8.67602686e-12
-8.633061618e-12
-8.590420304e-12
-8.548100441e-12
-8.506099449e-12
-8.464414453e-12
-8.423042196e-12
-8.381979124e-12
-8.341221596e-12
-8.300766128e-12
-8.26060956e-12
-8.220749072e-12
-8.181182044e-12
-8.14190581e-12
-8.102917471e-12
-8.064213847e-12
-8.025791621e-12
-7.987647601e-12
-7.949778985e-12
-7.912183459e-12
-7.874859099e-12
-7.837804096e-12
-7.801016448e-12
-7.764493758e-12
-7.728233221e-12
-7.69223178e-12
-7.656486315e-12
-7.620993789e-12
-7.585751293e-12
-7.550756027e-12
-7.516005274e-12
-7.481496422e-12
-7.447226998e-12
-7.413194713e-12
-7.379397458e-12
-7.345833237e-12
-7.31250008e-12
-7.279395999e-12
-7.246519052e-12
-7.213867492e-12
-7.181439905e-12
-7.149235271e-12
-7.117252884e-12
-7.085492156e-12
-7.053952234e-12
-7.022631063e-12
-6.991523928e-12
-6.960622358e-12
-6.929913331e-12
-6.899380229e-12
-6.869009698e-12
-6.838793153e-12
-6.807125643e-12
-6.772348114e-12
-6.73418504e-12
-6.692405498e-12
-6.646748351e-12
-6.59693214e-12
-6.542636251e-12
-6.483503745e-12
-6.419127602e-12
-6.34907384e-12
-6.272897788e-12
-6.190169662e-12
-6.100472299e-12
-6.003438477e-12
-5.898726286e-12
-5.786036058e-12
-5.665120649e-12
-5.535761145e-12
-5.397819956e-12
-5.251209857e-12
-5.095935047e-12
-4.932126403e-12
-4.759994506e-12
-4.579963559e-12
-4.392567064e-12
-4.198570388e-12
-3.998933012e-12
-3.79485287e-12
-3.587772127e-12
-3.379452684e-12
-3.171919845e-12
-2.96764869e-12
-2.769466365e-12
-2.580822943e-12
-2.405753892e-12
-2.24925139e-12
-2.11741161e-12
-2.018063758e-12
-1.961406598e-12
-9.235248451e-12
-1.209393406e-11
-1.494067922e-11
-1.759007824e-11
-1.99919821e-11
-2.214778163e-11
-2.407553875e-11
-2.579711394e-11
-2.733375623e-11
-2.870477976e-11
-2.992732894e-11
-3.101650549e-11
-3.198559551e-11
-3.28463057e-11
-3.360897889e-11
-3.428278143e-11
-3.487586341e-11
-3.539549514e-11
-3.584818273e-11
-3.623976617e-11
-3.657550272e-11
-3.686013786e-11
-3.709796611e-11
-3.729288353e-11
-3.744843295e-11
-3.756784302e-11
-3.765406189e-11
-3.770978633e-11
-3.773748712e-11
-3.773943153e-11
-3.77177033e-11
-3.767422031e-11
-3.761075027e-11
-3.75289243e-11
-3.743024894e-11
-3.731611681e-11
-3.718781618e-11
-3.704653975e-11
-3.689339275e-11
-3.672940019e-11
-3.655551338e-11
-3.637261567e-11
-3.618152758e-11
-3.598301141e-11
-3.57777755e-11
-3.556647819e-11
-3.534973157e-11
-3.512810492e-11
-3.490212782e-11
-3.467229298e-11
-3.443905872e-11
-3.42028513e-11
-3.396406697e-11
-3.372307404e-11
-3.348021468e-11
-3.323580678e-11
-3.299014567e-11
-3.274350562e-11
-3.249614129e-11
-3.224828908e-11
-3.200016821e-11
-3.17519819e-11
-3.150391833e-11
-3.125615159e-11
-3.100884258e-11
-3.076213992e-11
-3.05161807e-11
-3.027109129e-11
-3.002698804e-11
-2.978397795e-11
-2.954215927e-11
-2.930162213e-11
-2.9062449e-11
-2.882471522e-11
-2.858848949e-11
-2.835383426e-11
-2.812080613e-11
-2.788945624e-11
-2.765983064e-11
-2.743197055e-11
-2.720591274e-11
-2.698168978e-11
-2.675933031e-11
-2.653885932e-11
-2.632029839e-11
-2.610366593e-11
-2.588897738e-11
-2.567624546e-11
-2.546548033e-11
-2.525668982e-11
-2.504987955e-11
-2.484505312e-11
-2.464221225e-11
-2.444135694e-11
-2.424248552e-11
-2.404559487e-11
-2.385068045e-11
-2.365773642e-11
-2.346675576e-11
-2.327773033e-11
-2.309065098e-11
-2.29055076e-11
-2.272228923e-11
-2.25409841e-11
-2.236157971e-11
-2.218406291e-11
-2.200841994e-11
-2.183463647e-11
-2.166269772e-11
-2.149258843e-11
-2.132429294e-11
-2.115779526e-11
-2.099307907e-11
-2.083012777e-11
-2.066892453e-11
-2.05094523e-11
-2.035169387e-11
-2.019563188e-11
-2.004124884e-11
-1.988852715e-11
-1.973744918e-11
-1.958799721e-11
-1.944015348e-11
-1.929390027e-11
-1.91492198e-11
-1.900609434e-11
-1.88645062e-11
-1.872443773e-11
-1.858587131e-11
-1.844878944e-11
-1.831317467e-11
-1.817900963e-11
-1.804627708e-11
-1.791495986e-11
-1.778504093e-11
-1.765650339e-11
-1.752933044e-11
-1.740350541e-11
-1.72790118e-11
-1.715583321e-11
-1.703395341e-11
-1.691335631e-11
-1.679402597e-11
-1.66759466e-11
-1.655910258e-11
-1.644347844e-11
-1.632905885e-11
-1.621582869e-11
-1.610377295e-11
-1.599287683e-11
-1.588312566e-11
-1.577450496e-11
-1.566700041e-11
-1.556059787e-11
-1.545528334e-11
-1.535104302e-11
-1.524786327e-11
-1.514573062e-11
-1.504463176e-11
-1.494455358e-11
-1.484548312e-11
-1.47474076e-11
-1.465031442e-11
-1.455419113e-11
-1.445902547e-11
-1.436480534e-11
-1.427151883e-11
-1.417915417e-11
-1.408769976e-11
-1.399714417e-11
-1.390747612e-11
-1.381868447e-11
-1.373075825e-11
-1.364368661e-11
-1.355745884e-11
-1.347206439e-11
-1.338749281e-11
-1.330373378e-11
-1.322077711e-11
-1.313861275e-11
-1.305723074e-11
-1.297662127e-11
-1.289677467e-11
-1.281768137e-11
-1.273933196e-11
-1.266171717e-11
-1.258482784e-11
-1.2508655e-11
-1.243318977e-11
-1.235842344e-11
-1.228434743e-11
-1.221095328e-11
-1.213823266e-11
-1.206617735e-11
-1.199477927e-11
-1.192403043e-11
-1.185392295e-11
-1.178444905e-11
-1.171560106e-11
-1.164737143e-11
-1.157975269e-11
-1.15127375e-11
-1.144631861e-11
-1.13804889e-11
-1.131524131e-11
-1.125056893e-11
-1.118646491e-11
-1.112292252e-11
-1.10599351e-11
-1.099749607e-11
-1.093559894e-11
-1.08742373e-11
-1.081340482e-11
-1.075309527e-11
-1.069330249e-11
-1.063402043e-11
-1.057524312e-11
-1.05169647e-11
-1.045917942e-11
-1.040188159e-11
-1.034506565e-11
-1.028872611e-11
-1.023285758e-11
-1.017745475e-11
-1.012251242e-11
-1.006802547e-11
-1.001398887e-11
-9.96039769e-12
-9.907247086e-12
-9.854532288e-12
-9.802248592e-12
-9.750391332e-12
-9.698955856e-12
-9.647937513e-12
-9.597331624e-12
-9.547133486e-12
-9.497338378e-12
-9.447941584e-12
-9.398938434e-12
-9.350324357e-12
-9.30209493e-12
-9.254245919e-12
-9.206773305e-12
-9.159673266e-12
-9.112942132e-12
-9.066576311e-12
-9.020572184e-12
-8.974926021e-12
-8.929633915e-12
-8.884691769e-12
-8.840095353e-12
-8.795840417e-12
-8.751922831e-12
-8.708338731e-12
-8.665084613e-12
-8.622157338e-12
-8.579554055e-12
-8.537272041e-12
-8.495308525e-12
-8.45366054e-12
-8.412324876e-12
-8.371298127e-12
-8.33057683e-12
-8.290157634e-12
-8.250037406e-12
-8.210213244e-12
-8.170682386e-12
-8.131442056e-12
-8.092489346e-12
-8.053821193e-12
-8.015434466e-12
-7.977326142e-12
-7.939493474e-12
-7.901934049e-12
-7.864645721e-12
-7.827626427e-12
-7.790873981e-12
-7.754385933e-12
-7.718159552e-12
-7.68219192e-12
-7.646480048e-12
-7.61102099e-12
-7.575811886e-12
-7.540849968e-12
-7.506132557e-12
-7.471657083e-12
-7.437421101e-12
-7.403422319e-12
-7.369658595e-12
-7.336127895e-12
-7.30282824e-12
-7.269757703e-12
-7.23691446e-12
-7.204296916e-12
-7.171903853e-12
-7.13973454e-12
-7.107788752e-12
-7.076066575e-12
-7.044567817e-12
-7.01329075e-12
-6.982230469e-12
-6.951377383e-12
-6.920715194e-12
-6.890220612e-12
-6.859879486e-12
-6.829691921e-12
-6.798033534e-12
-6.763261526e-12
-6.725100701e-12
-6.683332046e-12
-6.637705246e-12
-6.587941289e-12
-6.5337209e-12
-6.474680299e-12
-6.410406095e-12
-6.340456503e-12
-6.264382142e-12
-6.181749791e-12
-6.092146903e-12
-5.995207933e-12
-5.890596987e-12
-5.778018914e-12
-5.657227971e-12
-5.528007858e-12
-5.390220321e-12
-5.243778016e-12
-5.088684263e-12
-4.925069288e-12
-4.753142897e-12
-4.573329646e-12
-4.386160265e-12
-4.192403579e-12
-3.993012597e-12
-3.789189755e-12
-3.582370846e-12
-3.374318157e-12
-3.16705375e-12
-2.963048683e-12
-2.765127266e-12
-2.576733966e-12
-2.401898862e-12
-2.245607011e-12
-2.113945692e-12
-2.014732894e-12
-1.958153295e-12
-1.064427421e-11
-1.311163572e-11
-1.565023667e-11
-1.808877854e-11
-2.035284978e-11
-2.241929006e-11
-2.428860713e-11
-2.597128674e-11
-2.748143653e-11
-2.883391535e-11
-3.004307553e-11
-3.112225272e-11
-3.208360356e-11
-3.293810407e-11
-3.369561902e-11
-3.436499839e-11
-3.495418063e-11
-3.547029296e-11
-3.591974392e-11
-3.630830651e-11
-3.66411916e-11
-3.692311215e-11
-3.715833969e-11
-3.735075386e-11
-3.750388585e-11
-3.762095609e-11
-3.770490691e-11
-3.775843073e-11
-3.778399487e-11
-3.778386368e-11
-3.776011839e-11
-3.771467491e-11
-3.76492994e-11
-3.756562186e-11
-3.746514788e-11
-3.734926905e-11
-3.72192725e-11
-3.707634965e-11
-3.692160445e-11
-3.675606077e-11
-3.658066891e-11
-3.63963114e-11
-3.620380797e-11
-3.600392003e-11
-3.579735497e-11
-3.558477008e-11
-3.536677635e-11
-3.5143942e-11
-3.491679564e-11
-3.46858291e-11
-3.445149989e-11
-3.42142334e-11
-3.397442503e-11
-3.37324421e-11
-3.34886258e-11
-3.324329303e-11
-3.29967381e-11
-3.274923437e-11
-3.250103563e-11
-3.225237745e-11
-3.200347829e-11
-3.175454059e-11
-3.150575175e-11