/*--------------------------------*- C++ -*----------------------------------*\
  =========                 |
  \\      /  F ield         | OpenFOAM: The Open Source CFD Toolbox
   \\    /   O peration     | Website:  https://openfoam.org
    \\  /    A nd           | Version:  7
     \\/     M anipulation  |
\*---------------------------------------------------------------------------*/
FoamFile
{
    version     2.0;
    format      ascii;
    class       volScalarField;
    location    "0.01/air";
    object      Tair;
}
// * * * * * * * * * * * * * * * * * * * * * * * * * * * * * * * * * * * * * //

dimensions      [0 0 0 1 0 0 0];

internalField   nonuniform List<scalar> 
3600
(
324.996
311.327
306.672
304.646
303.558
302.882
302.418
302.079
301.819
301.613
301.446
301.306
301.189
301.088
301
300.923
300.855
300.794
300.74
300.69
300.646
300.605
300.567
300.533
300.501
300.471
300.444
300.419
300.395
300.373
300.352
300.333
300.314
300.297
300.281
300.266
300.252
300.239
300.226
300.214
300.203
300.192
300.182
300.173
300.164
300.155
300.147
300.14
300.132
300.125
300.119
300.113
300.107
300.102
300.096
300.091
300.087
300.082
300.078
300.074
338.651
324.967
317.387
312.999
310.264
308.432
307.129
306.156
305.402
304.801
304.308
303.898
303.549
303.25
302.99
302.761
302.558
302.377
302.214
302.067
301.933
301.811
301.698
301.595
301.5
301.412
301.33
301.254
301.183
301.117
301.055
300.997
300.942
300.891
300.843
300.798
300.755
300.715
300.677
300.642
300.608
300.576
300.546
300.518
300.491
300.465
300.441
300.418
300.397
300.376
300.357
300.338
300.321
300.304
300.289
300.274
300.26
300.246
300.234
300.222
343.292
332.504
324.909
319.699
316.067
313.454
311.509
310.015
308.834
307.878
307.089
306.427
305.861
305.373
304.948
304.573
304.239
303.941
303.673
303.43
303.208
303.006
302.821
302.65
302.492
302.346
302.21
302.084
301.966
301.857
301.754
301.657
301.567
301.482
301.402
301.327
301.256
301.19
301.127
301.067
301.011
300.958
300.908
300.861
300.816
300.774
300.734
300.696
300.66
300.626
300.593
300.563
300.534
300.506
300.48
300.456
300.432
300.41
300.389
300.369
345.303
336.848
330.046
324.822
320.851
317.808
315.439
313.56
312.04
310.79
309.744
308.858
308.096
307.435
306.855
306.342
305.885
305.476
305.106
304.771
304.465
304.185
303.928
303.692
303.473
303.27
303.081
302.906
302.742
302.589
302.446
302.312
302.186
302.068
301.956
301.852
301.753
301.66
301.572
301.49
301.411
301.338
301.268
301.202
301.139
301.08
301.024
300.971
300.921
300.873
300.828
300.786
300.745
300.707
300.67
300.636
300.603
300.572
300.543
300.515
346.376
339.539
333.606
328.691
324.705
321.488
318.88
316.745
314.978
313.497
312.241
311.163
310.23
309.415
308.695
308.056
307.485
306.97
306.505
306.082
305.696
305.342
305.016
304.715
304.437
304.179
303.939
303.716
303.507
303.312
303.129
302.958
302.797
302.646
302.504
302.37
302.244
302.125
302.013
301.907
301.807
301.713
301.623
301.539
301.459
301.383
301.311
301.244
301.179
301.119
301.061
301.006
300.954
300.905
300.859
300.815
300.773
300.733
300.695
300.66
347.038
341.328
336.146
331.632
327.791
324.56
321.847
319.563
317.629
315.978
314.558
313.325
312.248
311.298
310.455
309.703
309.026
308.416
307.862
307.356
306.894
306.469
306.078
305.717
305.382
305.07
304.781
304.511
304.259
304.023
303.801
303.594
303.399
303.216
303.044
302.881
302.728
302.584
302.448
302.319
302.198
302.083
301.974
301.871
301.774
301.682
301.595
301.513
301.435
301.361
301.29
301.224
301.161
301.101
301.045
300.991
300.94
300.892
300.846
300.802
347.488
342.587
338.018
333.899
330.269
327.113
324.385
322.032
319.996
318.229
316.687
315.333
314.137
313.074
312.125
311.272
310.503
309.805
309.169
308.588
308.055
307.564
307.111
306.691
306.302
305.94
305.603
305.288
304.994
304.718
304.46
304.217
303.989
303.775
303.573
303.383
303.203
303.034
302.875
302.724
302.581
302.447
302.319
302.199
302.084
301.976
301.874
301.777
301.686
301.599
301.516
301.438
301.364
301.294
301.228
301.164
301.105
301.048
300.994
300.943
347.812
343.516
339.439
335.676
332.273
329.237
326.55
324.182
322.096
320.256
318.627
317.182
315.892
314.737
313.698
312.759
311.907
311.132
310.422
309.772
309.173
308.621
308.11
307.636
307.195
306.785
306.402
306.045
305.71
305.396
305.102
304.826
304.566
304.321
304.091
303.873
303.669
303.475
303.293
303.12
302.957
302.803
302.657
302.519
302.389
302.265
302.148
302.037
301.932
301.832
301.738
301.648
301.564
301.483
301.407
301.335
301.266
301.201
301.14
301.081
348.057
344.226
340.547
337.094
333.909
331.011
328.396
326.05
323.949
322.07
320.386
318.874
317.513
316.284
315.171
314.159
313.236
312.392
311.617
310.903
310.245
309.636
309.072
308.547
308.058
307.603
307.177
306.779
306.406
306.055
305.727
305.418
305.127
304.853
304.595
304.352
304.122
303.905
303.701
303.507
303.324
303.151
302.987
302.832
302.686
302.547
302.415
302.291
302.173
302.061
301.955
301.854
301.759
301.668
301.583
301.501
301.424
301.351
301.282
301.216
348.249
344.785
341.43
338.242
335.259
332.501
329.974
327.672
325.582
323.688
321.972
320.416
319.002
317.716
316.543
315.47
314.486
313.582
312.749
311.98
311.268
310.607
309.994
309.422
308.888
308.39
307.924
307.487
307.078
306.693
306.332
305.992
305.671
305.37
305.085
304.817
304.563
304.324
304.097
303.884
303.681
303.49
303.309
303.137
302.975
302.821
302.676
302.538
302.407
302.283
302.166
302.054
301.949
301.849
301.754
301.664
301.578
301.497
301.421
301.348
348.402
345.233
342.146
339.185
336.384
333.762
331.328
329.082
327.019
325.129
323.398
321.815
320.364
319.035
317.814
316.692
315.657
314.702
313.819
313
312.239
311.532
310.873
310.258
309.683
309.146
308.642
308.169
307.725
307.308
306.915
306.545
306.197
305.869
305.559
305.266
304.99
304.729
304.482
304.248
304.027
303.818
303.621
303.433
303.256
303.088
302.929
302.778
302.635
302.499
302.371
302.249
302.133
302.024
301.92
301.822
301.728
301.639
301.555
301.476
348.526
345.6
342.736
339.97
337.329
334.833
332.492
330.31
328.284
326.409
324.678
323.08
321.606
320.245
318.988
317.825
316.748
315.75
314.823
313.961
313.158
312.408
311.709
311.054
310.442
309.867
309.328
308.822
308.346
307.898
307.476
307.078
306.703
306.349
306.015
305.7
305.401
305.119
304.853
304.601
304.362
304.136
303.922
303.719
303.527
303.345
303.173
303.01
302.855
302.708
302.569
302.437
302.312
302.194
302.081
301.974
301.873
301.777
301.686
301.599
348.629
345.904
343.227
340.629
338.131
335.75
333.498
331.38
329.397
327.547
325.824
324.222
322.733
321.351
320.067
318.872
317.761
316.727
315.763
314.863
314.022
313.235
312.499
311.809
311.161
310.553
309.982
309.444
308.938
308.461
308.012
307.588
307.188
306.81
306.453
306.116
305.797
305.495
305.209
304.939
304.683
304.441
304.212
303.995
303.789
303.594
303.409
303.233
303.067
302.91
302.76
302.619
302.484
302.357
302.236
302.121
302.013
301.909
301.812
301.719
348.715
346.159
343.642
341.187
338.814
336.538
334.37
332.316
330.378
328.556
326.849
325.25
323.755
322.359
321.055
319.837
318.698
317.634
316.638
315.705
314.832
314.012
313.243
312.521
311.842
311.203
310.602
310.035
309.502
308.998
308.523
308.074
307.65
307.25
306.871
306.513
306.175
305.854
305.551
305.263
304.991
304.734
304.49
304.258
304.039
303.831
303.635
303.448
303.271
303.103
302.944
302.793
302.65
302.514
302.385
302.263
302.147
302.037
301.932
301.833
348.788
346.375
343.994
341.663
339.401
337.219
335.128
333.135
331.243
329.453
327.764
326.174
324.679
323.275
321.958
320.721
319.561
318.472
317.449
316.489
315.587
314.739
313.941
313.189
312.482
311.815
311.187
310.594
310.034
309.506
309.007
308.535
308.089
307.668
307.269
306.892
306.534
306.196
305.876
305.572
305.285
305.013
304.755
304.51
304.278
304.059
303.85
303.653
303.465
303.288
303.119
302.959
302.808
302.664
302.527
302.398
302.275
302.158
302.048
301.943
348.85
346.559
344.294
342.072
339.906
337.809
335.789
333.853
332.005
330.248
328.581
327.003
325.512
324.105
322.779
321.529
320.352
319.243
318.199
317.215
316.288
315.415
314.591
313.814
313.081
312.39
311.736
311.119
310.536
309.985
309.464
308.971
308.504
308.063
307.645
307.25
306.875
306.52
306.184
305.865
305.564
305.278
305.006
304.749
304.505
304.274
304.055
303.847
303.65
303.463
303.286
303.117
302.958
302.806
302.663
302.526
302.397
302.274
302.158
302.047
348.903
346.717
344.553
342.424
340.344
338.321
336.365
334.483
332.678
330.952
329.308
327.745
326.261
324.855
323.524
322.265
321.075
319.95
318.888
317.884
316.936
316.041
315.195
314.395
313.64
312.925
312.249
311.61
311.006
310.434
309.892
309.38
308.894
308.435
307.999
307.587
307.196
306.826
306.475
306.142
305.826
305.527
305.244
304.975
304.72
304.478
304.249
304.031
303.825
303.629
303.443
303.267
303.1
302.941
302.79
302.648
302.512
302.384
302.261
302.146
348.949
346.853
344.775
342.728
340.723
338.767
336.869
335.035
333.27
331.576
329.955
328.407
326.932
325.529
324.197
322.932
321.732
320.595
319.518
318.498
317.532
316.618
315.752
314.932
314.156
313.422
312.726
312.067
311.443
310.852
310.292
309.761
309.259
308.782
308.33
307.902
307.497
307.112
306.747
306.401
306.073
305.762
305.467
305.187
304.921
304.669
304.43
304.204
303.989
303.785
303.591
303.407
303.233
303.068
302.911
302.762
302.62
302.486
302.359
302.238
348.988
346.97
344.968
342.992
341.051
339.155
337.309
335.519
333.791
332.126
330.528
328.996
327.532
326.134
324.801
323.533
322.327
321.18
320.091
319.057
318.077
317.146
316.263
315.426
314.632
313.879
313.166
312.489
311.848
311.239
310.662
310.115
309.597
309.105
308.638
308.196
307.776
307.378
307
306.642
306.302
305.98
305.674
305.384
305.109
304.848
304.6
304.365
304.142
303.93
303.729
303.538
303.358
303.186
303.023
302.868
302.722
302.582
302.45
302.325
349.022
347.071
345.134
343.219
341.336
339.492
337.692
335.943
334.248
332.611
331.034
329.518
328.064
326.673
325.342
324.072
322.861
321.708
320.609
319.564
318.57
317.626
316.729
315.876
315.067
314.298
313.569
312.876
312.219
311.595
311.003
310.441
309.908
309.402
308.922
308.466
308.034
307.624
307.234
306.865
306.514
306.182
305.866
305.567
305.282
305.013
304.757
304.514
304.283
304.064
303.857
303.66
303.473
303.295
303.127
302.967
302.815
302.671
302.535
302.405
349.051
347.158
345.277
343.416
341.583
339.784
338.025
336.311
334.647
333.035
331.478
329.978
328.535
327.15
325.823
324.553
323.339
322.18
321.074
320.019
319.015
318.059
317.149
316.284
315.46
314.678
313.934
313.228
312.556
311.919
311.313
310.738
310.192
309.673
309.181
308.713
308.27
307.848
307.448
307.069
306.709
306.367
306.042
305.734
305.441
305.164
304.9
304.65
304.413
304.188
303.974
303.771
303.578
303.396
303.222
303.058
302.901
302.753
302.612
302.478
349.076
347.232
345.4
343.585
341.795
340.036
338.313
336.631
334.994
333.405
331.866
330.38
328.948
327.57
326.247
324.977
323.762
322.598
321.487
320.425
319.412
318.446
317.525
316.648
315.813
315.019
314.263
313.544
312.86
312.21
311.593
311.006
310.448
309.918
309.415
308.937
308.483
308.052
307.642
307.253
306.884
306.534
306.201
305.885
305.586
305.301
305.031
304.774
304.531
304.3
304.08
303.872
303.674
303.487
303.309
303.14
302.979
302.827
302.682
302.545
349.098
347.296
345.505
343.729
341.976
340.251
338.56
336.905
335.292
333.723
332.202
330.729
329.307
327.936
326.616
325.348
324.132
322.966
321.849
320.782
319.761
318.787
317.858
316.971
316.126
315.321
314.555
313.825
313.131
312.47
311.842
311.244
310.677
310.137
309.624
309.136
308.673
308.233
307.815
307.418
307.042
306.684
306.344
306.021
305.714
305.424
305.147
304.885
304.636
304.4
304.175
303.962
303.76
303.568
303.386
303.213
303.049
302.893
302.745
302.605
349.116
347.35
345.593
343.851
342.13
340.434
338.769
337.138
335.546
333.995
332.488
331.028
329.614
328.25
326.934
325.668
324.451
323.283
322.163
321.091
320.065
319.084
318.147
317.252
316.399
315.585
314.81
314.071
313.367
312.697
312.06
311.454
310.877
310.328
309.807
309.311
308.84
308.393
307.968
307.564
307.18
306.815
306.469
306.14
305.828
305.531
305.25
304.983
304.729
304.488
304.259
304.042
303.836
303.64
303.454
303.278
303.111
302.952
302.801
302.658
349.131
347.394
345.667
343.953
342.258
340.586
338.944
337.333
335.759
334.223
332.729
331.278
329.873
328.514
327.203
325.938
324.722
323.553
322.43
321.354
320.323
319.337
318.394
317.492
316.632
315.811
315.028
314.281
313.57
312.892
312.247
311.633
311.049
310.493
309.965
309.462
308.984
308.53
308.098
307.688
307.299
306.929
306.577
306.243
305.926
305.624
305.338
305.067
304.809
304.564
304.331
304.111
303.901
303.702
303.513
303.334
303.164
303.002
302.849
302.703
349.143
347.431
345.726
344.035
342.362
340.71
339.086
337.492
335.932
334.409
332.926
331.484
330.086
328.732
327.424
326.161
324.945
323.775
322.651
321.572
320.537
319.547
318.598
317.692
316.826
315.999
315.209
314.456
313.739
313.055
312.403
311.783
311.192
310.631
310.096
309.588
309.104
308.645
308.208
307.793
307.398
307.023
306.667
306.329
306.007
305.702
305.412
305.137
304.876
304.628
304.392
304.168
303.956
303.754
303.562
303.381
303.208
303.044
302.889
302.741
349.152
347.459
345.773
344.1
342.443
340.808
339.198
337.617
336.069
334.556
333.081
331.646
330.254
328.904
327.598
326.338
325.122
323.952
322.826
321.745
320.708
319.714
318.762
317.851
316.98
316.148
315.354
314.596
313.874
313.185
312.528
311.903
311.307
310.741
310.202
309.689
309.201
308.737
308.296
307.876
307.478
307.099
306.74
306.398
306.073
305.765
305.472
305.194
304.929
304.679
304.44
304.214
303.999
303.796
303.602
303.418
303.244
303.078
302.921
302.772
349.159
347.48
345.808
344.147
342.503
340.88
339.281
337.71
336.17
334.665
333.196
331.767
330.378
329.032
327.729
326.469
325.254
324.083
322.957
321.874
320.835
319.839
318.884
317.97
317.096
316.261
315.463
314.701
313.975
313.282
312.622
311.993
311.394
310.823
310.281
309.764
309.273
308.806
308.362
307.939
307.538
307.156
306.794
306.45
306.122
305.812
305.516
305.236
304.97
304.717
304.477
304.249
304.032
303.827
303.632
303.446
303.271
303.104
302.945
302.795
349.164
347.494
345.831
344.179
342.543
340.927
339.335
337.771
336.237
334.737
333.273
331.847
330.461
329.117
327.815
326.556
325.342
324.171
323.044
321.96
320.92
319.922
318.965
318.049
317.173
316.336
315.535
314.771
314.042
313.347
312.684
312.053
311.451
310.879
310.334
309.815
309.321
308.852
308.406
307.981
307.578
307.195
306.83
306.484
306.155
305.843
305.546
305.264
304.997
304.743
304.501
304.272
304.054
303.848
303.652
303.465
303.288
303.121
302.961
302.81
349.166
347.501
345.842
344.194
342.563
340.951
339.362
337.801
336.27
334.772
333.31
331.886
330.502
329.159
327.858
326.6
325.385
324.214
323.087
322.003
320.962
319.963
319.006
318.089
317.212
316.373
315.572
314.806
314.076
313.38
312.716
312.083
311.48
310.906
310.36
309.84
309.345
308.875
308.428
308.002
307.598
307.214
306.848
306.502
306.172
305.859
305.561
305.279
305.01
304.755
304.513
304.284
304.065
303.858
303.662
303.475
303.297
303.129
302.969
302.818
349.166
347.501
345.842
344.194
342.563
340.951
339.362
337.801
336.27
334.772
333.31
331.886
330.502
329.159
327.858
326.6
325.385
324.214
323.087
322.003
320.962
319.963
319.006
318.089
317.212
316.373
315.572
314.806
314.076
313.38
312.716
312.083
311.48
310.906
310.36
309.84
309.345
308.875
308.428
308.002
307.598
307.214
306.848
306.502
306.172
305.859
305.561
305.279
305.01
304.755
304.513
304.284
304.065
303.858
303.662
303.475
303.297
303.129
302.969
302.818
349.164
347.494
345.831
344.179
342.543
340.927
339.335
337.771
336.237
334.737
333.273
331.847
330.461
329.117
327.815
326.556
325.342
324.171
323.044
321.96
320.92
319.922
318.965
318.049
317.173
316.336
315.535
314.771
314.042
313.347
312.684
312.053
311.451
310.879
310.334
309.815
309.321
308.852
308.406
307.981
307.578
307.195
306.83
306.484
306.155
305.843
305.546
305.264
304.997
304.743
304.501
304.272
304.054
303.848
303.652
303.465
303.288
303.121
302.961
302.81
349.159
347.48
345.808
344.147
342.503
340.88
339.281
337.71
336.17
334.665
333.196
331.767
330.378
329.032
327.729
326.469
325.254
324.083
322.957
321.874
320.835
319.839
318.884
317.97
317.096
316.261
315.463
314.701
313.975
313.282
312.622
311.993
311.394
310.823
310.281
309.764
309.273
308.806
308.362
307.939
307.538
307.156
306.794
306.45
306.122
305.812
305.516
305.236
304.97
304.717
304.477
304.249
304.032
303.827
303.632
303.446
303.271
303.104
302.945
302.795
349.152
347.459
345.773
344.1
342.443
340.808
339.198
337.617
336.069
334.556
333.081
331.646
330.254
328.904
327.598
326.338
325.122
323.952
322.826
321.745
320.708
319.714
318.762
317.851
316.98
316.148
315.354
314.596
313.874
313.185
312.528
311.903
311.307
310.741
310.202
309.689
309.201
308.737
308.296
307.876
307.478
307.099
306.74
306.398
306.073
305.765
305.472
305.194
304.929
304.679
304.44
304.214
303.999
303.796
303.602
303.418
303.244
303.078
302.921
302.772
349.143
347.431
345.726
344.035
342.362
340.71
339.086
337.492
335.932
334.409
332.926
331.484
330.086
328.732
327.424
326.161
324.945
323.775
322.651
321.572
320.537
319.547
318.598
317.692
316.826
315.999
315.209
314.456
313.739
313.055
312.403
311.783
311.192
310.631
310.096
309.588
309.104
308.645
308.208
307.793
307.398
307.023
306.667
306.329
306.007
305.702
305.412
305.137
304.876
304.628
304.392
304.168
303.956
303.754
303.562
303.381
303.208
303.044
302.889
302.741
349.131
347.394
345.667
343.953
342.258
340.586
338.944
337.333
335.759
334.223
332.729
331.278
329.873
328.514
327.203
325.938
324.722
323.553
322.43
321.354
320.323
319.337
318.394
317.492
316.632
315.811
315.028
314.281
313.57
312.892
312.247
311.633
311.049
310.493
309.965
309.462
308.984
308.53
308.098
307.688
307.299
306.929
306.577
306.243
305.926
305.624
305.338
305.067
304.809
304.564
304.331
304.111
303.901
303.702
303.513
303.334
303.164
303.002
302.849
302.703
349.116
347.35
345.593
343.851
342.13
340.434
338.769
337.138
335.546
333.995
332.488
331.028
329.614
328.25
326.934
325.668
324.451
323.283
322.163
321.091
320.065
319.084
318.147
317.252
316.399
315.585
314.81
314.071
313.367
312.697
312.06
311.454
310.877
310.328
309.807
309.311
308.84
308.393
307.968
307.564
307.18
306.815
306.469
306.14
305.828
305.531
305.25
304.983
304.729
304.488
304.259
304.042
303.836
303.64
303.454
303.278
303.111
302.952
302.801
302.658
349.098
347.296
345.505
343.729
341.976
340.251
338.56
336.905
335.292
333.723
332.202
330.729
329.307
327.936
326.616
325.348
324.132
322.966
321.849
320.782
319.761
318.787
317.858
316.971
316.126
315.321
314.555
313.825
313.131
312.47
311.842
311.244
310.677
310.137
309.624
309.136
308.673
308.233
307.815
307.418
307.042
306.684
306.344
306.021
305.714
305.424
305.147
304.885
304.636
304.4
304.175
303.962
303.76
303.568
303.386
303.213
303.049
302.893
302.745
302.605
349.076
347.232
345.4
343.585
341.795
340.036
338.313
336.631
334.994
333.405
331.866
330.38
328.948
327.57
326.247
324.977
323.762
322.598
321.487
320.425
319.412
318.446
317.525
316.648
315.813
315.019
314.263
313.544
312.86
312.21
311.593
311.006
310.448
309.918
309.415
308.937
308.483
308.052
307.642
307.253
306.884
306.534
306.201
305.885
305.586
305.301
305.031
304.774
304.531
304.3
304.08
303.872
303.674
303.487
303.309
303.14
302.979
302.827
302.682
302.545
349.051
347.158
345.277
343.416
341.583
339.784
338.025
336.311
334.647
333.035
331.478
329.978
328.535
327.15
325.823
324.553
323.339
322.18
321.074
320.019
319.015
318.059
317.149
316.284
315.46
314.678
313.934
313.228
312.556
311.919
311.313
310.738
310.192
309.673
309.181
308.713
308.27
307.848
307.448
307.069
306.709
306.367
306.042
305.734
305.441
305.164
304.9
304.65
304.413
304.188
303.974
303.771
303.578
303.396
303.222
303.058
302.901
302.753
302.612
302.478
349.022
347.071
345.134
343.219
341.336
339.492
337.692
335.943
334.248
332.611
331.034
329.518
328.064
326.673
325.342
324.072
322.861
321.708
320.609
319.564
318.57
317.626
316.729
315.876
315.067
314.298
313.569
312.876
312.219
311.595
311.003
310.441
309.908
309.402
308.922
308.466
308.034
307.624
307.234
306.865
306.514
306.182
305.866
305.567
305.282
305.013
304.757
304.514
304.283
304.064
303.857
303.66
303.473
303.295
303.127
302.967
302.815
302.671
302.535
302.405
348.988
346.97
344.968
342.992
341.051
339.155
337.309
335.519
333.791
332.126
330.528
328.996
327.532
326.134
324.801
323.533
322.327
321.18
320.091
319.057
318.077
317.146
316.263
315.426
314.632
313.879
313.166
312.489
311.848
311.239
310.662
310.115
309.597
309.105
308.638
308.196
307.776
307.378
307
306.642
306.302
305.98
305.674
305.384
305.109
304.848
304.6
304.365
304.142
303.93
303.729
303.538
303.358
303.186
303.023
302.868
302.722
302.582
302.45
302.325
348.949
346.853
344.775
342.728
340.723
338.767
336.869
335.035
333.27
331.576
329.955
328.407
326.932
325.529
324.197
322.932
321.732
320.595
319.518
318.498
317.532
316.618
315.752
314.932
314.156
313.422
312.726
312.067
311.443
310.852
310.292
309.761
309.259
308.782
308.33
307.902
307.497
307.112
306.747
306.401
306.073
305.762
305.467
305.187
304.921
304.669
304.43
304.204
303.989
303.785
303.591
303.407
303.233
303.068
302.911
302.762
302.62
302.486
302.359
302.238
348.903
346.717
344.553
342.424
340.344
338.321
336.365
334.483
332.678
330.952
329.308
327.745
326.261
324.855
323.524
322.265
321.075
319.95
318.888
317.884
316.936
316.041
315.195
314.395
313.64
312.925
312.249
311.61
311.006
310.434
309.892
309.38
308.894
308.435
307.999
307.587
307.196
306.826
306.475
306.142
305.826
305.527
305.244
304.975
304.72
304.478
304.249
304.031
303.825
303.629
303.443
303.267
303.1
302.941
302.79
302.648
302.512
302.384
302.261
302.146
348.85
346.559
344.294
342.072
339.906
337.809
335.789
333.853
332.005
330.248
328.581
327.003
325.512
324.105
322.779
321.529
320.352
319.243
318.199
317.215
316.288
315.415
314.591
313.814
313.081
312.39
311.736
311.119
310.536
309.985
309.464
308.971
308.504
308.063
307.645
307.25
306.875
306.52
306.184
305.865
305.564
305.278
305.006
304.749
304.505
304.274
304.055
303.847
303.65
303.463
303.286
303.117
302.958
302.806
302.663
302.526
302.397
302.274
302.158
302.047
348.788
346.375
343.994
341.663
339.401
337.219
335.128
333.135
331.243
329.453
327.764
326.174
324.679
323.275
321.958
320.721
319.561
318.472
317.449
316.489
315.587
314.739
313.941
313.189
312.482
311.815
311.187
310.594
310.034
309.506
309.007
308.535
308.089
307.668
307.269
306.892
306.534
306.196
305.876
305.572
305.285
305.013
304.755
304.51
304.278
304.059
303.85
303.653
303.465
303.288
303.119
302.959
302.808
302.664
302.527
302.398
302.275
302.158
302.048
301.943
348.715
346.159
343.642
341.187
338.814
336.538
334.37
332.316
330.378
328.556
326.849
325.25
323.755
322.359
321.055
319.837
318.698
317.634
316.638
315.705
314.832
314.012
313.243
312.521
311.842
311.203
310.602
310.035
309.502
308.998
308.523
308.074
307.65
307.25
306.871
306.513
306.175
305.854
305.551
305.263
304.991
304.734
304.49
304.258
304.039
303.831
303.635
303.448
303.271
303.103
302.944
302.793
302.65
302.514
302.385
302.263
302.147
302.037
301.932
301.833
348.629
345.904
343.227
340.629
338.131
335.75
333.498
331.38
329.397
327.547
325.824
324.222
322.733
321.351
320.067
318.872
317.761
316.727
315.763
314.863
314.022
313.235
312.499
311.809
311.161
310.553
309.982
309.444
308.938
308.461
308.012
307.588
307.188
306.81
306.453
306.116
305.797
305.495
305.209
304.939
304.683
304.441
304.212
303.995
303.789
303.594
303.409
303.233
303.067
302.91
302.76
302.619
302.484
302.357
302.236
302.121
302.013
301.909
301.812
301.719
348.526
345.6
342.736
339.97
337.329
334.833
332.492
330.31
328.284
326.409
324.678
323.08
321.606
320.245
318.988
317.825
316.748
315.75
314.823
313.961
313.158
312.408
311.709
311.054
310.442
309.867
309.328
308.822
308.346
307.898
307.476
307.078
306.703
306.349
306.015
305.7
305.401
305.119
304.853
304.601
304.362
304.136
303.922
303.719
303.527
303.345
303.173
303.01
302.855
302.708
302.569
302.437
302.312
302.194
302.081
301.974
301.873
301.777
301.686
301.599
348.402
345.233
342.146
339.185
336.384
333.762
331.328
329.082
327.019
325.129
323.398
321.815
320.364
319.035
317.814
316.692
315.657
314.702
313.819
313
312.239
311.532
310.873
310.258
309.683
309.146
308.642
308.169
307.725
307.308
306.915
306.545
306.197
305.869
305.559
305.266
304.99
304.729
304.482
304.248
304.027
303.818
303.621
303.433
303.256
303.088
302.929
302.778
302.635
302.499
302.371
302.249
302.133
302.024
301.92
301.822
301.728
301.639
301.555
301.476
348.249
344.785
341.43
338.242
335.259
332.501
329.974
327.672
325.582
323.688
321.972
320.416
319.002
317.716
316.543
315.47
314.486
313.582
312.749
311.98
311.268
310.607
309.994
309.422
308.888
308.39
307.924
307.487
307.078
306.693
306.332
305.992
305.671
305.37
305.085
304.817
304.563
304.324
304.097
303.884
303.681
303.49
303.309
303.137
302.975
302.821
302.676
302.538
302.407
302.283
302.166
302.054
301.949
301.849
301.754
301.664
301.578
301.497
301.421
301.348
348.057
344.226
340.547
337.094
333.909
331.011
328.396
326.05
323.949
322.07
320.386
318.874
317.513
316.284
315.171
314.159
313.236
312.392
311.617
310.903
310.245
309.636
309.072
308.547
308.058
307.603
307.177
306.779
306.406
306.055
305.727
305.418
305.127
304.853
304.595
304.352
304.122
303.905
303.701
303.507
303.324
303.151
302.987
302.832
302.686
302.547
302.415
302.291
302.173
302.061
301.955
301.854
301.759
301.668
301.583
301.501
301.424
301.351
301.282
301.216
347.812
343.516
339.439
335.676
332.273
329.237
326.55
324.182
322.096
320.256
318.627
317.182
315.892
314.737
313.698
312.759
311.907
311.132
310.422
309.772
309.173
308.621
308.11
307.636
307.195
306.785
306.402
306.045
305.71
305.396
305.102
304.826
304.566
304.321
304.091
303.873
303.669
303.475
303.293
303.12
302.957
302.803
302.657
302.519
302.389
302.265
302.148
302.037
301.932
301.832
301.738
301.648
301.564
301.483
301.407
301.335
301.266
301.201
301.14
301.081
347.488
342.587
338.018
333.899
330.269
327.113
324.385
322.032
319.996
318.229
316.687
315.333
314.137
313.074
312.125
311.272
310.503
309.805
309.169
308.588
308.055
307.564
307.111
306.691
306.302
305.94
305.603
305.288
304.994
304.718
304.46
304.217
303.989
303.775
303.573
303.383
303.203
303.034
302.875
302.724
302.581
302.447
302.319
302.199
302.084
301.976
301.874
301.777
301.686
301.599
301.516
301.438
301.364
301.294
301.228
301.164
301.105
301.048
300.994
300.943
347.038
341.328
336.146
331.632
327.791
324.56
321.847
319.563
317.629
315.978
314.558
313.325
312.247
311.298
310.455
309.702
309.026
308.416
307.862
307.356
306.894
306.469
306.078
305.717
305.382
305.07
304.781
304.511
304.259
304.023
303.801
303.594
303.399
303.216
303.044
302.881
302.728
302.584
302.448
302.319
302.198
302.083
301.974
301.871
301.774
301.682
301.595
301.513
301.435
301.361
301.29
301.224
301.161
301.101
301.045
300.991
300.94
300.892
300.846
300.802
346.376
339.539
333.606
328.691
324.705
321.488
318.88
316.745
314.978
313.497
312.241
311.163
310.23
309.415
308.695
308.056
307.485
306.97
306.505
306.082
305.696
305.342
305.016
304.715
304.437
304.179
303.939
303.716
303.507
303.312
303.129
302.958
302.797
302.646
302.504
302.37
302.244
302.125
302.013
301.907
301.807
301.713
301.623
301.539
301.459
301.383
301.311
301.244
301.179
301.119
301.061
301.006
300.954
300.905
300.859
300.815
300.773
300.733
300.695
300.66
345.303
336.848
330.046
324.822
320.851
317.808
315.439
313.56
312.041
310.79
309.744
308.858
308.096
307.435
306.855
306.342
305.885
305.476
305.106
304.771
304.465
304.185
303.928
303.692
303.473
303.27
303.081
302.906
302.742
302.589
302.446
302.312
302.186
302.068
301.956
301.852
301.753
301.66
301.572
301.49
301.411
301.338
301.268
301.202
301.139
301.08
301.024
300.971
300.921
300.873
300.828
300.786
300.745
300.707
300.67
300.636
300.603
300.572
300.543
300.515
343.292
332.504
324.909
319.699
316.067
313.454
311.509
310.015
308.834
307.878
307.089
306.426
305.861
305.373
304.948
304.573
304.239
303.941
303.673
303.43
303.208
303.006
302.821
302.65
302.492
302.346
302.21
302.084
301.966
301.857
301.754
301.657
301.567
301.482
301.402
301.327
301.256
301.19
301.127
301.067
301.011
300.958
300.908
300.861
300.816
300.774
300.734
300.696
300.66
300.626
300.593
300.563
300.534
300.506
300.48
300.456
300.432
300.41
300.389
300.369
338.651
324.967
317.387
312.999
310.264
308.432
307.129
306.156
305.402
304.801
304.308
303.898
303.549
303.25
302.99
302.761
302.558
302.377
302.214
302.067
301.933
301.811
301.698
301.595
301.5
301.412
301.33
301.254
301.183
301.117
301.055
300.997
300.942
300.891
300.843
300.798
300.755
300.715
300.677
300.642
300.608
300.576
300.546
300.518
300.491
300.465
300.441
300.418
300.397
300.376
300.357
300.338
300.321
300.304
300.289
300.274
300.26
300.246
300.234
300.222
324.997
311.327
306.672
304.646
303.558
302.882
302.418
302.079
301.819
301.613
301.446
301.306
301.189
301.088
301
300.923
300.855
300.794
300.74
300.69
300.646
300.605
300.567
300.533
300.501
300.471
300.444
300.419
300.395
300.373
300.352
300.333
300.314
300.297
300.281
300.266
300.252
300.239
300.226
300.214
300.203
300.192
300.182
300.173
300.164
300.155
300.147
300.14
300.132
300.125
300.119
300.113
300.107
300.102
300.096
300.091
300.087
300.082
300.078
300.074
)
;

boundaryField
{
    topWall
    {
        type            fixedValue;
        value           uniform 300;
    }
    leftWall
    {
        type            fixedValue;
        value           uniform 350;
    }
    bottomWall
    {
        type            fixedValue;
        value           uniform 300;
    }
    frontAndBack
    {
        type            empty;
    }
    air_to_solid
    {
        type            compressible::turbulentTemperatureCoupledBaffleMixed;
        refValue        nonuniform List<scalar> 
60
(
300.07
300.21
300.35
300.489
300.626
300.761
300.895
301.026
301.154
301.279
301.4
301.517
301.631
301.739
301.843
301.942
302.036
302.124
302.206
302.282
302.352
302.415
302.472
302.522
302.565
302.601
302.63
302.652
302.666
302.674
302.674
302.666
302.652
302.63
302.601
302.565
302.522
302.472
302.415
302.352