/*--------------------------------*- C++ -*----------------------------------*\
  =========                 |
  \\      /  F ield         | OpenFOAM: The Open Source CFD Toolbox
   \\    /   O peration     | Website:  https://openfoam.org
    \\  /    A nd           | Version:  7
     \\/     M anipulation  |
\*---------------------------------------------------------------------------*/
FoamFile
{
    version     2.0;
    format      ascii;
    class       volVectorField;
    location    "1.2e-12";
    object      EA;
}
// * * * * * * * * * * * * * * * * * * * * * * * * * * * * * * * * * * * * * //

dimensions      [1 1 -3 0 0 -1 0];

internalField   nonuniform List<vector> 
14934
(
(4.02853e+07 -7.61071e+06 -0)
(3.54243e+07 -8.31259e+06 -0)
(3.18162e+07 -8.71114e+06 -0)
(2.89965e+07 -8.94772e+06 -0)
(2.67096e+07 -9.08986e+06 -0)
(2.48025e+07 -9.17291e+06 -0)
(2.31777e+07 -9.21689e+06 -0)
(2.17696e+07 -9.23388e+06 -0)
(2.05324e+07 -9.23151e+06 -0)
(1.9433e+07 -9.21486e+06 -0)
(1.84465e+07 -9.1874e+06 -0)
(1.75542e+07 -9.15158e+06 -0)
(1.67415e+07 -9.10918e+06 -0)
(1.59968e+07 -9.06154e+06 -0)
(1.53108e+07 -9.00965e+06 -0)
(1.46759e+07 -8.95429e+06 -0)
(1.40859e+07 -8.89606e+06 -0)
(1.35356e+07 -8.83546e+06 -0)
(1.30207e+07 -8.77288e+06 -0)
(1.25374e+07 -8.70863e+06 -0)
(1.20826e+07 -8.64298e+06 -0)
(1.16537e+07 -8.57615e+06 -0)
(1.12482e+07 -8.50833e+06 -0)
(1.0864e+07 -8.43968e+06 -0)
(1.04995e+07 -8.37033e+06 -0)
(1.01531e+07 -8.30041e+06 -0)
(9.82323e+06 -8.23003e+06 -0)
(9.50879e+06 -8.15926e+06 -0)
(9.20863e+06 -8.0882e+06 -0)
(8.92177e+06 -8.01691e+06 -0)
(8.6473e+06 -7.94547e+06 -0)
(8.38442e+06 -7.87393e+06 -0)
(8.1324e+06 -7.80235e+06 -0)
(7.89058e+06 -7.73077e+06 -0)
(7.65835e+06 -7.65924e+06 -0)
(7.43516e+06 -7.58779e+06 -0)
(7.2205e+06 -7.51648e+06 -0)
(7.01391e+06 -7.44532e+06 -0)
(6.81495e+06 -7.37436e+06 -0)
(6.62324e+06 -7.30362e+06 -0)
(6.4384e+06 -7.23313e+06 -0)
(6.2601e+06 -7.16292e+06 -0)
(6.08802e+06 -7.093e+06 -0)
(5.92186e+06 -7.02341e+06 -0)
(5.76136e+06 -6.95416e+06 -0)
(5.60626e+06 -6.88528e+06 -0)
(5.45631e+06 -6.81677e+06 -0)
(5.31129e+06 -6.74865e+06 -0)
(5.171e+06 -6.68095e+06 -0)
(5.03523e+06 -6.61368e+06 -0)
(4.90379e+06 -6.54684e+06 -0)
(4.77652e+06 -6.48045e+06 -0)
(4.65324e+06 -6.41453e+06 -0)
(4.53379e+06 -6.34908e+06 -0)
(4.41804e+06 -6.28412e+06 -0)
(4.30583e+06 -6.21965e+06 -0)
(4.19703e+06 -6.15568e+06 -0)
(4.09152e+06 -6.09222e+06 -0)
(3.98917e+06 -6.02927e+06 -0)
(3.88988e+06 -5.96685e+06 -0)
(3.79352e+06 -5.90495e+06 -0)
(3.7e+06 -5.84359e+06 -0)
(3.60921e+06 -5.78276e+06 -0)
(3.52107e+06 -5.72248e+06 -0)
(3.43547e+06 -5.66274e+06 -0)
(3.35234e+06 -5.60355e+06 -0)
(3.27158e+06 -5.54492e+06 -0)
(3.19312e+06 -5.48683e+06 -0)
(3.11689e+06 -5.4293e+06 -0)
(3.0428e+06 -5.37233e+06 -0)
(2.9708e+06 -5.31591e+06 -0)
(2.9008e+06 -5.26006e+06 -0)
(2.83275e+06 -5.20476e+06 -0)
(2.76658e+06 -5.15002e+06 -0)
(2.70224e+06 -5.09584e+06 -0)
(2.63966e+06 -5.04221e+06 -0)
(2.5788e+06 -4.98914e+06 -0)
(2.51959e+06 -4.93663e+06 -0)
(2.46198e+06 -4.88467e+06 -0)
(2.40593e+06 -4.83327e+06 -0)
(2.35139e+06 -4.78241e+06 -0)
(2.29831e+06 -4.73211e+06 -0)
(2.24665e+06 -4.68234e+06 -0)
(2.19636e+06 -4.63313e+06 -0)
(2.1474e+06 -4.58445e+06 -0)
(2.09974e+06 -4.53632e+06 -0)
(2.05333e+06 -4.48872e+06 -0)
(2.00814e+06 -4.44165e+06 -0)
(1.96412e+06 -4.39511e+06 -0)
(1.92126e+06 -4.34911e+06 -0)
(1.8795e+06 -4.30362e+06 -0)
(1.83883e+06 -4.25866e+06 -0)
(1.79921e+06 -4.21422e+06 -0)
(1.76063e+06 -4.17031e+06 -0)
(1.72299e+06 -4.12694e+06 -0)
(1.68628e+06 -4.08399e+06 -0)
(1.65033e+06 -4.04115e+06 -0)
(3.81719e+07 -2.60525e+06 -0)
(3.42476e+07 -4.53267e+06 -0)
(3.11044e+07 -5.73985e+06 -0)
(2.85408e+07 -6.53579e+06 -0)
(2.64071e+07 -7.08116e+06 -0)
(2.45978e+07 -7.46526e+06 -0)
(2.30388e+07 -7.74069e+06 -0)
(2.16768e+07 -7.94006e+06 -0)
(2.04731e+07 -8.08443e+06 -0)
(1.93985e+07 -8.18796e+06 -0)
(1.84311e+07 -8.26044e+06 -0)
(1.75536e+07 -8.30884e+06 -0)
(1.67526e+07 -8.33826e+06 -0)
(1.60173e+07 -8.35247e+06 -0)
(1.53389e+07 -8.35435e+06 -0)
(1.47103e+07 -8.34611e+06 -0)
(1.41255e+07 -8.32949e+06 -0)
(1.35795e+07 -8.30586e+06 -0)
(1.30683e+07 -8.27633e+06 -0)
(1.25881e+07 -8.24179e+06 -0)
(1.2136e+07 -8.20299e+06 -0)
(1.17093e+07 -8.16052e+06 -0)
(1.13057e+07 -8.11491e+06 -0)
(1.09232e+07 -8.06658e+06 -0)
(1.05602e+07 -8.0159e+06 -0)
(1.02149e+07 -7.96318e+06 -0)
(9.88612e+06 -7.90869e+06 -0)
(9.57256e+06 -7.85266e+06 -0)
(9.27316e+06 -7.7953e+06 -0)
(8.98693e+06 -7.73678e+06 -0)
(8.71299e+06 -7.67727e+06 -0)
(8.45055e+06 -7.61689e+06 -0)
(8.19889e+06 -7.55578e+06 -0)
(7.95734e+06 -7.49404e+06 -0)
(7.72532e+06 -7.43178e+06 -0)
(7.50228e+06 -7.36908e+06 -0)
(7.28771e+06 -7.30603e+06 -0)
(7.08115e+06 -7.24269e+06 -0)
(6.88218e+06 -7.17914e+06 -0)
(6.69042e+06 -7.11543e+06 -0)
(6.50549e+06 -7.05163e+06 -0)
(6.32706e+06 -6.98777e+06 -0)
(6.15481e+06 -6.92391e+06 -0)
(5.98846e+06 -6.86009e+06 -0)
(5.82773e+06 -6.79634e+06 -0)
(5.67238e+06 -6.73272e+06 -0)
(5.52215e+06 -6.66924e+06 -0)
(5.37684e+06 -6.60594e+06 -0)
(5.23623e+06 -6.54285e+06 -0)
(5.10012e+06 -6.47999e+06 -0)
(4.96832e+06 -6.41739e+06 -0)
(4.84068e+06 -6.35507e+06 -0)
(4.717e+06 -6.29306e+06 -0)
(4.59716e+06 -6.23136e+06 -0)
(4.48098e+06 -6.17001e+06 -0)
(4.36834e+06 -6.10901e+06 -0)
(4.25911e+06 -6.04838e+06 -0)
(4.15314e+06 -5.98814e+06 -0)
(4.05033e+06 -5.92829e+06 -0)
(3.95057e+06 -5.86886e+06 -0)
(3.85373e+06 -5.80985e+06 -0)
(3.75972e+06 -5.75127e+06 -0)
(3.66845e+06 -5.69313e+06 -0)
(3.5798e+06 -5.63543e+06 -0)
(3.4937e+06 -5.5782e+06 -0)
(3.41006e+06 -5.52143e+06 -0)
(3.32879e+06 -5.46513e+06 -0)
(3.24982e+06 -5.4093e+06 -0)
(3.17307e+06 -5.35395e+06 -0)
(3.09846e+06 -5.29909e+06 -0)
(3.02593e+06 -5.24472e+06 -0)
(2.95541e+06 -5.19084e+06 -0)
(2.88683e+06 -5.13746e+06 -0)
(2.82013e+06 -5.08457e+06 -0)
(2.75526e+06 -5.03218e+06 -0)
(2.69215e+06 -4.9803e+06 -0)
(2.63076e+06 -4.92891e+06 -0)
(2.57102e+06 -4.87803e+06 -0)
(2.51289e+06 -4.82765e+06 -0)
(2.45631e+06 -4.77778e+06 -0)
(2.40124e+06 -4.72841e+06 -0)
(2.34763e+06 -4.67954e+06 -0)
(2.29545e+06 -4.63118e+06 -0)
(2.24464e+06 -4.58331e+06 -0)
(2.19516e+06 -4.53595e+06 -0)
(2.14698e+06 -4.48909e+06 -0)
(2.10005e+06 -4.44273e+06 -0)
(2.05435e+06 -4.39686e+06 -0)
(2.00982e+06 -4.35149e+06 -0)
(1.96645e+06 -4.30661e+06 -0)
(1.92418e+06 -4.26222e+06 -0)
(1.883e+06 -4.21832e+06 -0)
(1.84287e+06 -4.17491e+06 -0)
(1.80377e+06 -4.132e+06 -0)
(1.76568e+06 -4.08958e+06 -0)
(1.72857e+06 -4.04759e+06 -0)
(1.69208e+06 -4.00595e+06 -0)
(3.5071e+07 1.0407e+06 -0)
(3.22897e+07 -1.473e+06 -0)
(2.98131e+07 -3.17986e+06 -0)
(2.76552e+07 -4.37447e+06 -0)
(2.57801e+07 -5.23378e+06 -0)
(2.4143e+07 -5.86632e+06 -0)
(2.27029e+07 -6.34061e+06 -0)
(2.14259e+07 -6.70127e+06 -0)
(2.02845e+07 -6.97824e+06 -0)
(1.9257e+07 -7.19215e+06 -0)
(1.83256e+07 -7.3576e+06 -0)
(1.74764e+07 -7.48515e+06 -0)
(1.66979e+07 -7.58259e+06 -0)
(1.59807e+07 -7.65579e+06 -0)
(1.53172e+07 -7.70923e+06 -0)
(1.47008e+07 -7.74638e+06 -0)
(1.41262e+07 -7.76999e+06 -0)
(1.35888e+07 -7.78223e+06 -0)
(1.30847e+07 -7.78486e+06 -0)
(1.26107e+07 -7.7793e+06 -0)
(1.21639e+07 -7.76673e+06 -0)
(1.17417e+07 -7.74812e+06 -0)
(1.13421e+07 -7.72429e+06 -0)
(1.09631e+07 -7.69592e+06 -0)
(1.06029e+07 -7.6636e+06 -0)
(1.02603e+07 -7.62781e+06 -0)
(9.93375e+06 -7.58898e+06 -0)
(9.62218e+06 -7.54749e+06 -0)
(9.32451e+06 -7.50365e+06 -0)
(9.0398e+06 -7.45774e+06 -0)
(8.76719e+06 -7.41001e+06 -0)
(8.50591e+06 -7.36068e+06 -0)
(8.25525e+06 -7.30993e+06 -0)
(8.01458e+06 -7.25794e+06 -0)
(7.78331e+06 -7.20487e+06 -0)
(7.56091e+06 -7.15083e+06 -0)
(7.34689e+06 -7.09597e+06 -0)
(7.1408e+06 -7.04039e+06 -0)
(6.94221e+06 -6.98419e+06 -0)
(6.75076e+06 -6.92746e+06 -0)
(6.56607e+06 -6.87028e+06 -0)
(6.38782e+06 -6.81274e+06 -0)
(6.2157e+06 -6.75489e+06 -0)
(6.04943e+06 -6.6968e+06 -0)
(5.88873e+06 -6.63853e+06 -0)
(5.73336e+06 -6.58013e+06 -0)
(5.58309e+06 -6.52165e+06 -0)
(5.43768e+06 -6.46314e+06 -0)
(5.29695e+06 -6.40463e+06 -0)
(5.16068e+06 -6.34617e+06 -0)
(5.02871e+06 -6.28779e+06 -0)
(4.90085e+06 -6.22952e+06 -0)
(4.77695e+06 -6.17139e+06 -0)
(4.65684e+06 -6.11343e+06 -0)
(4.54039e+06 -6.05567e+06 -0)
(4.42746e+06 -5.99813e+06 -0)
(4.3179e+06 -5.94083e+06 -0)
(4.21161e+06 -5.8838e+06 -0)
(4.10845e+06 -5.82704e+06 -0)
(4.00832e+06 -5.77059e+06 -0)
(3.91111e+06 -5.71445e+06 -0)
(3.81672e+06 -5.65864e+06 -0)
(3.72504e+06 -5.60318e+06 -0)
(3.63599e+06 -5.54807e+06 -0)
(3.54948e+06 -5.49334e+06 -0)
(3.46541e+06 -5.43898e+06 -0)
(3.38371e+06 -5.38501e+06 -0)
(3.30429e+06 -5.33144e+06 -0)
(3.22709e+06 -5.27827e+06 -0)
(3.15204e+06 -5.22552e+06 -0)
(3.07905e+06 -5.17319e+06 -0)
(3.00806e+06 -5.12129e+06 -0)
(2.93902e+06 -5.06981e+06 -0)
(2.87186e+06 -5.01878e+06 -0)
(2.80651e+06 -4.96818e+06 -0)
(2.74293e+06 -4.91803e+06 -0)
(2.68106e+06 -4.86833e+06 -0)
(2.62084e+06 -4.81908e+06 -0)
(2.56223e+06 -4.77029e+06 -0)
(2.50518e+06 -4.72195e+06 -0)
(2.44963e+06 -4.67406e+06 -0)
(2.39554e+06 -4.62664e+06 -0)
(2.34287e+06 -4.57967e+06 -0)
(2.29158e+06 -4.53316e+06 -0)
(2.24162e+06 -4.48712e+06 -0)
(2.19296e+06 -4.44153e+06 -0)
(2.14556e+06 -4.39641e+06 -0)
(2.09938e+06 -4.35174e+06 -0)
(2.05438e+06 -4.30754e+06 -0)
(2.01053e+06 -4.26379e+06 -0)
(1.96779e+06 -4.22049e+06 -0)
(1.92614e+06 -4.17765e+06 -0)
(1.88553e+06 -4.13526e+06 -0)
(1.84596e+06 -4.09333e+06 -0)
(1.8074e+06 -4.05186e+06 -0)
(1.76991e+06 -4.01084e+06 -0)
(1.73291e+06 -3.97018e+06 -0)
(3.18475e+07 3.3897e+06 -0)
(3.0027e+07 779825 -0)
(2.82029e+07 -1.13208e+06 -0)
(2.64869e+07 -2.54842e+06 -0)
(2.49153e+07 -3.61314e+06 -0)
(2.3491e+07 -4.4256e+06 -0)
(2.22038e+07 -5.05413e+06 -0)
(2.10392e+07 -5.54616e+06 -0)
(1.99822e+07 -5.93508e+06 -0)
(1.90192e+07 -6.24478e+06 -0)
(1.81381e+07 -6.49264e+06 -0)
(1.73286e+07 -6.69153e+06 -0)
(1.65819e+07 -6.85113e+06 -0)
(1.58906e+07 -6.97884e+06 -0)
(1.52483e+07 -7.08035e+06 -0)
(1.46495e+07 -7.16016e+06 -0)
(1.40896e+07 -7.22182e+06 -0)
(1.35647e+07 -7.26817e+06 -0)
(1.30712e+07 -7.30152e+06 -0)
(1.26062e+07 -7.32377e+06 -0)
(1.21672e+07 -7.33646e+06 -0)
(1.17517e+07 -7.3409e+06 -0)
(1.13579e+07 -7.33817e+06 -0)
(1.09839e+07 -7.32917e+06 -0)
(1.06283e+07 -7.3147e+06 -0)
(1.02895e+07 -7.29541e+06 -0)
(9.96643e+06 -7.27188e+06 -0)
(9.6579e+06 -7.2446e+06 -0)
(9.36291e+06 -7.21401e+06 -0)
(9.08057e+06 -7.18046e+06 -0)
(8.81006e+06 -7.1443e+06 -0)
(8.55063e+06 -7.10582e+06 -0)
(8.30162e+06 -7.06527e+06 -0)
(8.06241e+06 -7.02287e+06 -0)
(7.83243e+06 -6.97884e+06 -0)
(7.61117e+06 -6.93335e+06 -0)
(7.39815e+06 -6.88657e+06 -0)
(7.19293e+06 -6.83864e+06 -0)
(6.99512e+06 -6.7897e+06 -0)
(6.80432e+06 -6.73986e+06 -0)
(6.62021e+06 -6.68924e+06 -0)
(6.44245e+06 -6.63794e+06 -0)
(6.27075e+06 -6.58604e+06 -0)
(6.10482e+06 -6.53362e+06 -0)
(5.9444e+06 -6.48077e+06 -0)
(5.78925e+06 -6.42755e+06 -0)
(5.63915e+06 -6.37403e+06 -0)
(5.49386e+06 -6.32026e+06 -0)
(5.3532e+06 -6.2663e+06 -0)
(5.21696e+06 -6.21219e+06 -0)
(5.08498e+06 -6.15799e+06 -0)
(4.95707e+06 -6.10374e+06 -0)
(4.83309e+06 -6.04947e+06 -0)
(4.71287e+06 -5.99523e+06 -0)
(4.59628e+06 -5.94103e+06 -0)
(4.48318e+06 -5.88693e+06 -0)
(4.37344e+06 -5.83294e+06 -0)
(4.26693e+06 -5.77909e+06 -0)
(4.16354e+06 -5.72541e+06 -0)
(4.06316e+06 -5.67192e+06 -0)
(3.96568e+06 -5.61864e+06 -0)
(3.871e+06 -5.56559e+06 -0)
(3.77902e+06 -5.51279e+06 -0)
(3.68965e+06 -5.46026e+06 -0)
(3.6028e+06 -5.40801e+06 -0)
(3.51839e+06 -5.35605e+06 -0)
(3.43633e+06 -5.3044e+06 -0)
(3.35656e+06 -5.25308e+06 -0)
(3.27898e+06 -5.20208e+06 -0)
(3.20354e+06 -5.15143e+06 -0)
(3.13016e+06 -5.10114e+06 -0)
(3.05878e+06 -5.0512e+06 -0)
(2.98934e+06 -5.00164e+06 -0)
(2.92176e+06 -4.95245e+06 -0)
(2.856e+06 -4.90365e+06 -0)
(2.792e+06 -4.85523e+06 -0)
(2.72971e+06 -4.80721e+06 -0)
(2.66907e+06 -4.75959e+06 -0)
(2.61002e+06 -4.71237e+06 -0)
(2.55253e+06 -4.66556e+06 -0)
(2.49655e+06 -4.61916e+06 -0)
(2.44203e+06 -4.57318e+06 -0)
(2.38892e+06 -4.52761e+06 -0)
(2.33719e+06 -4.48245e+06 -0)
(2.28679e+06 -4.43772e+06 -0)
(2.23769e+06 -4.39341e+06 -0)
(2.18984e+06 -4.34953e+06 -0)
(2.14322e+06 -4.30606e+06 -0)
(2.09778e+06 -4.26303e+06 -0)
(2.05349e+06 -4.22041e+06 -0)
(2.01032e+06 -4.17821e+06 -0)
(1.96823e+06 -4.13644e+06 -0)
(1.92719e+06 -4.09508e+06 -0)
(1.88718e+06 -4.05414e+06 -0)
(1.84817e+06 -4.01362e+06 -0)
(1.81025e+06 -3.97356e+06 -0)
(1.77291e+06 -3.93393e+06 -0)
(2.88937e+07 4.78114e+06 -0)
(2.77679e+07 2.3347e+06 -0)
(2.64848e+07 420166 -0)
(2.51742e+07 -1.07398e+06 -0)
(2.3903e+07 -2.24477e+06 -0)
(2.2702e+07 -3.16878e+06 -0)
(2.15823e+07 -3.90412e+06 -0)
(2.05449e+07 -4.49414e+06 -0)
(1.95859e+07 -4.97113e+06 -0)
(1.86994e+07 -5.35922e+06 -0)
(1.78789e+07 -5.67662e+06 -0)
(1.71179e+07 -5.93718e+06 -0)
(1.64106e+07 -6.15156e+06 -0)
(1.57515e+07 -6.32805e+06 -0)
(1.51358e+07 -6.47316e+06 -0)
(1.45593e+07 -6.59207e+06 -0)
(1.40181e+07 -6.68893e+06 -0)
(1.35091e+07 -6.76708e+06 -0)
(1.30291e+07 -6.82927e+06 -0)
(1.25758e+07 -6.87777e+06 -0)
(1.21468e+07 -6.91443e+06 -0)
(1.174e+07 -6.94082e+06 -0)
(1.13538e+07 -6.95827e+06 -0)
(1.09865e+07 -6.96787e+06 -0)
(1.06367e+07 -6.97059e+06 -0)
(1.03031e+07 -6.96724e+06 -0)
(9.98456e+06 -6.95851e+06 -0)
(9.68006e+06 -6.94501e+06 -0)
(9.38866e+06 -6.92728e+06 -0)
(9.1095e+06 -6.90577e+06 -0)
(8.84183e+06 -6.88089e+06 -0)
(8.58494e+06 -6.853e+06 -0)
(8.3382e+06 -6.82241e+06 -0)
(8.101e+06 -6.78941e+06 -0)
(7.87283e+06 -6.75424e+06 -0)
(7.65318e+06 -6.71713e+06 -0)
(7.4416e+06 -6.67828e+06 -0)
(7.23767e+06 -6.63787e+06 -0)
(7.04099e+06 -6.59607e+06 -0)
(6.85121e+06 -6.55302e+06 -0)
(6.668e+06 -6.50885e+06 -0)
(6.49103e+06 -6.46369e+06 -0)
(6.32002e+06 -6.41766e+06 -0)
(6.15469e+06 -6.37084e+06 -0)
(5.9948e+06 -6.32334e+06 -0)
(5.84011e+06 -6.27523e+06 -0)
(5.69038e+06 -6.22661e+06 -0)
(5.54542e+06 -6.17753e+06 -0)
(5.40501e+06 -6.12806e+06 -0)
(5.26899e+06 -6.07827e+06 -0)
(5.13716e+06 -6.02821e+06 -0)
(5.00937e+06 -5.97793e+06 -0)
(4.88546e+06 -5.92749e+06 -0)
(4.76528e+06 -5.87692e+06 -0)
(4.64869e+06 -5.82626e+06 -0)
(4.53555e+06 -5.77557e+06 -0)
(4.42574e+06 -5.72486e+06 -0)
(4.31914e+06 -5.67417e+06 -0)
(4.21562e+06 -5.62354e+06 -0)
(4.11509e+06 -5.57299e+06 -0)
(4.01744e+06 -5.52255e+06 -0)
(3.92257e+06 -5.47224e+06 -0)
(3.83038e+06 -5.42209e+06 -0)
(3.74078e+06 -5.37211e+06 -0)
(3.65368e+06 -5.32233e+06 -0)
(3.56901e+06 -5.27276e+06 -0)
(3.48668e+06 -5.22342e+06 -0)
(3.40661e+06 -5.17433e+06 -0)
(3.32874e+06 -5.1255e+06 -0)
(3.25298e+06 -5.07694e+06 -0)
(3.17928e+06 -5.02867e+06 -0)
(3.10756e+06 -4.9807e+06 -0)
(3.03778e+06 -4.93303e+06 -0)
(2.96985e+06 -4.88569e+06 -0)
(2.90374e+06 -4.83866e+06 -0)
(2.83937e+06 -4.79198e+06 -0)
(2.7767e+06 -4.74563e+06 -0)
(2.71568e+06 -4.69963e+06 -0)
(2.65626e+06 -4.65399e+06 -0)
(2.59838e+06 -4.60871e+06 -0)
(2.54201e+06 -4.56379e+06 -0)
(2.48709e+06 -4.51924e+06 -0)
(2.43359e+06 -4.47507e+06 -0)
(2.38146e+06 -4.43127e+06 -0)
(2.33066e+06 -4.38785e+06 -0)
(2.28116e+06 -4.34482e+06 -0)
(2.23291e+06 -4.30217e+06 -0)
(2.18588e+06 -4.2599e+06 -0)
(2.14003e+06 -4.21803e+06 -0)
(2.09534e+06 -4.17655e+06 -0)
(2.05176e+06 -4.13546e+06 -0)
(2.00927e+06 -4.09476e+06 -0)
(1.96783e+06 -4.05444e+06 -0)
(1.92742e+06 -4.01451e+06 -0)
(1.88799e+06 -3.97497e+06 -0)
(1.8496e+06 -3.93583e+06 -0)
(1.81198e+06 -3.89716e+06 -0)
(2.63242e+07 5.54214e+06 -0)
(2.5666e+07 3.35766e+06 -0)
(2.47943e+07 1.55202e+06 -0)
(2.3822e+07 77081.2 -0)
(2.28205e+07 -1.12315e+06 -0)
(2.18317e+07 -2.10065e+06 -0)
(2.08785e+07 -2.89944e+06 -0)
(1.99722e+07 -3.55516e+06 -0)
(1.91171e+07 -4.09607e+06 -0)
(1.83137e+07 -4.54435e+06 -0)
(1.75601e+07 -4.91744e+06 -0)
(1.68536e+07 -5.22901e+06 -0)
(1.61911e+07 -5.48988e+06 -0)
(1.5569e+07 -5.70864e+06 -0)
(1.49843e+07 -5.89218e+06 -0)
(1.44337e+07 -6.04604e+06 -0)
(1.39146e+07 -6.17474e+06 -0)
(1.34243e+07 -6.28195e+06 -0)
(1.29605e+07 -6.37073e+06 -0)
(1.25211e+07 -6.4436e+06 -0)
(1.21041e+07 -6.50266e+06 -0)
(1.17079e+07 -6.5497e+06 -0)
(1.13308e+07 -6.58621e+06 -0)
(1.09716e+07 -6.61346e+06 -0)
(1.06289e+07 -6.63256e+06 -0)
(1.03016e+07 -6.64443e+06 -0)
(9.98866e+06 -6.6499e+06 -0)
(9.68912e+06 -6.64966e+06 -0)
(9.40215e+06 -6.64433e+06 -0)
(9.12696e+06 -6.63445e+06 -0)
(8.86283e+06 -6.62049e+06 -0)
(8.60911e+06 -6.60288e+06 -0)
(8.36521e+06 -6.58197e+06 -0)
(8.13058e+06 -6.55811e+06 -0)
(7.90471e+06 -6.53158e+06 -0)
(7.68713e+06 -6.50264e+06 -0)
(7.47741e+06 -6.47155e+06 -0)
(7.27514e+06 -6.4385e+06 -0)
(7.07997e+06 -6.40368e+06 -0)
(6.89154e+06 -6.36728e+06 -0)
(6.70953e+06 -6.32945e+06 -0)
(6.53364e+06 -6.29034e+06 -0)
(6.3636e+06 -6.25006e+06 -0)
(6.19914e+06 -6.20875e+06 -0)
(6.04001e+06 -6.16651e+06 -0)
(5.88599e+06 -6.12344e+06 -0)
(5.73685e+06 -6.07964e+06 -0)
(5.59241e+06 -6.03518e+06 -0)
(5.45245e+06 -5.99015e+06 -0)
(5.31681e+06 -5.94462e+06 -0)
(5.18531e+06 -5.89865e+06 -0)
(5.05779e+06 -5.8523e+06 -0)
(4.9341e+06 -5.80563e+06 -0)
(4.8141e+06 -5.7587e+06 -0)
(4.69764e+06 -5.71154e+06 -0)
(4.58459e+06 -5.66422e+06 -0)
(4.47483e+06 -5.61676e+06 -0)
(4.36825e+06 -5.5692e+06 -0)
(4.26472e+06 -5.52159e+06 -0)
(4.16415e+06 -5.47396e+06 -0)
(4.06643e+06 -5.42633e+06 -0)
(3.97146e+06 -5.37874e+06 -0)
(3.87915e+06 -5.33121e+06 -0)
(3.78941e+06 -5.28377e+06 -0)
(3.70215e+06 -5.23644e+06 -0)
(3.61729e+06 -5.18925e+06 -0)
(3.53476e+06 -5.1422e+06 -0)
(3.45448e+06 -5.09533e+06 -0)
(3.37637e+06 -5.04865e+06 -0)
(3.30037e+06 -5.00217e+06 -0)
(3.22641e+06 -4.95591e+06 -0)
(3.15442e+06 -4.90989e+06 -0)
(3.08435e+06 -4.86412e+06 -0)
(3.01613e+06 -4.8186e+06 -0)
(2.94971e+06 -4.77335e+06 -0)
(2.88504e+06 -4.72838e+06 -0)
(2.82205e+06 -4.68371e+06 -0)
(2.76071e+06 -4.63933e+06 -0)
(2.70095e+06 -4.59525e+06 -0)
(2.64273e+06 -4.55149e+06 -0)
(2.58602e+06 -4.50805e+06 -0)
(2.53075e+06 -4.46494e+06 -0)
(2.47689e+06 -4.42215e+06 -0)
(2.4244e+06 -4.37971e+06 -0)
(2.37324e+06 -4.3376e+06 -0)
(2.32337e+06 -4.29584e+06 -0)
(2.27476e+06 -4.25442e+06 -0)
(2.22735e+06 -4.21336e+06 -0)
(2.18113e+06 -4.17265e+06 -0)
(2.13606e+06 -4.1323e+06 -0)
(2.09211e+06 -4.09231e+06 -0)
(2.04925e+06 -4.05268e+06 -0)
(2.00744e+06 -4.01342e+06 -0)
(1.96665e+06 -3.97451e+06 -0)
(1.92685e+06 -3.93596e+06 -0)
(1.88806e+06 -3.89776e+06 -0)
(1.85006e+06 -3.85996e+06 -0)
(2.41321e+07 5.91051e+06 -0)
(2.37778e+07 4.00177e+06 -0)
(2.32042e+07 2.35318e+06 -0)
(2.2499e+07 953432 -0)
(2.17252e+07 -224261 -0)
(2.09257e+07 -1.21124e+06 -0)
(2.01278e+07 -2.03784e+06 -0)
(1.93483e+07 -2.731e+06 -0)
(1.85967e+07 -3.31362e+06 -0)
(1.7878e+07 -3.8047e+06 -0)
(1.71942e+07 -4.21978e+06 -0)
(1.65455e+07 -4.57155e+06 -0)
(1.5931e+07 -4.87031e+06 -0)
(1.53492e+07 -5.12446e+06 -0)
(1.47984e+07 -5.34088e+06 -0)
(1.42767e+07 -5.52518e+06 -0)
(1.37822e+07 -5.68203e+06 -0)
(1.33131e+07 -5.81526e+06 -0)
(1.28675e+07 -5.9281e+06 -0)
(1.24439e+07 -6.02324e+06 -0)
(1.20407e+07 -6.10293e+06 -0)
(1.16565e+07 -6.16911e+06 -0)
(1.12901e+07 -6.22341e+06 -0)
(1.09402e+07 -6.26722e+06 -0)
(1.06057e+07 -6.30175e+06 -0)
(1.02858e+07 -6.32805e+06 -0)
(9.97934e+06 -6.347e+06 -0)
(9.68563e+06 -6.3594e+06 -0)
(9.40386e+06 -6.36594e+06 -0)
(9.13334e+06 -6.36721e+06 -0)
(8.87341e+06 -6.36376e+06 -0)
(8.62347e+06 -6.35605e+06 -0)
(8.38297e+06 -6.3445e+06 -0)
(8.1514e+06 -6.32948e+06 -0)
(7.92829e+06 -6.31132e+06 -0)
(7.71321e+06 -6.29033e+06 -0)
(7.50575e+06 -6.26678e+06 -0)
(7.30553e+06 -6.24089e+06 -0)
(7.1122e+06 -6.2129e+06 -0)
(6.92544e+06 -6.18299e+06 -0)
(6.74494e+06 -6.15135e+06 -0)
(6.57042e+06 -6.11814e+06 -0)
(6.4016e+06 -6.08351e+06 -0)
(6.23824e+06 -6.0476e+06 -0)
(6.08011e+06 -6.01052e+06 -0)
(5.92698e+06 -5.9724e+06 -0)
(5.77864e+06 -5.93334e+06 -0)
(5.6349e+06 -5.89343e+06 -0)
(5.49558e+06 -5.85276e+06 -0)
(5.36049e+06 -5.81141e+06 -0)
(5.22948e+06 -5.76947e+06 -0)
(5.10239e+06 -5.72699e+06 -0)
(4.97906e+06 -5.68405e+06 -0)
(4.85937e+06 -5.64071e+06 -0)
(4.74317e+06 -5.59701e+06 -0)
(4.63034e+06 -5.55301e+06 -0)
(4.52075e+06 -5.50876e+06 -0)
(4.4143e+06 -5.4643e+06 -0)
(4.31087e+06 -5.41968e+06 -0)
(4.21036e+06 -5.37493e+06 -0)
(4.11266e+06 -5.33009e+06 -0)
(4.01769e+06 -5.28519e+06 -0)
(3.92535e+06 -5.24026e+06 -0)
(3.83555e+06 -5.19533e+06 -0)
(3.74821e+06 -5.15043e+06 -0)
(3.66325e+06 -5.10559e+06 -0)
(3.58059e+06 -5.06082e+06 -0)
(3.50017e+06 -5.01615e+06 -0)
(3.4219e+06 -4.9716e+06 -0)
(3.34571e+06 -4.92719e+06 -0)
(3.27156e+06 -4.88293e+06 -0)
(3.19936e+06 -4.83885e+06 -0)
(3.12907e+06 -4.79495e+06 -0)
(3.06062e+06 -4.75125e+06 -0)
(2.99395e+06 -4.70777e+06 -0)
(2.92902e+06 -4.66451e+06 -0)
(2.86576e+06 -4.6215e+06 -0)
(2.80414e+06 -4.57873e+06 -0)
(2.74409e+06 -4.53621e+06 -0)
(2.68559e+06 -4.49397e+06 -0)
(2.62857e+06 -4.452e+06 -0)
(2.57299e+06 -4.41031e+06 -0)
(2.51882e+06 -4.36891e+06 -0)
(2.46602e+06 -4.32781e+06 -0)
(2.41453e+06 -4.28701e+06 -0)
(2.36433e+06 -4.24652e+06 -0)
(2.31538e+06 -4.20634e+06 -0)
(2.26765e+06 -4.16647e+06 -0)
(2.22109e+06 -4.12693e+06 -0)
(2.17568e+06 -4.08771e+06 -0)
(2.13138e+06 -4.04881e+06 -0)
(2.08816e+06 -4.01025e+06 -0)
(2.046e+06 -3.97202e+06 -0)
(2.00487e+06 -3.93414e+06 -0)
(1.96474e+06 -3.89658e+06 -0)
(1.92561e+06 -3.85935e+06 -0)
(1.8872e+06 -3.82244e+06 -0)
(2.2269e+07 6.04116e+06 -0)
(2.21087e+07 4.38574e+06 -0)
(2.17459e+07 2.90551e+06 -0)
(2.12445e+07 1.60773e+06 -0)
(2.06558e+07 483914 -0)
(2.00181e+07 -482209 -0)
(1.93587e+07 -1.30967e+06 -0)
(1.86964e+07 -2.01738e+06 -0)
(1.80434e+07 -2.62273e+06 -0)
(1.74075e+07 -3.14103e+06 -0)
(1.67932e+07 -3.58544e+06 -0)
(1.62031e+07 -3.96709e+06 -0)
(1.56382e+07 -4.29534e+06 -0)
(1.50985e+07 -4.57802e+06 -0)
(1.45835e+07 -4.82168e+06 -0)
(1.40926e+07 -5.03178e+06 -0)
(1.36245e+07 -5.21293e+06 -0)
(1.31782e+07 -5.36897e+06 -0)
(1.27525e+07 -5.50318e+06 -0)
(1.23462e+07 -5.61831e+06 -0)
(1.19582e+07 -5.71672e+06 -0)
(1.15874e+07 -5.8004e+06 -0)
(1.12327e+07 -5.87109e+06 -0)
(1.08933e+07 -5.93025e+06 -0)
(1.05681e+07 -5.97918e+06 -0)
(1.02564e+07 -6.01899e+06 -0)
(9.9573e+06 -6.05065e+06 -0)
(9.67019e+06 -6.07501e+06 -0)
(9.39434e+06 -6.0928e+06 -0)
(9.12913e+06 -6.1047e+06 -0)
(8.87399e+06 -6.11128e+06 -0)
(8.62838e+06 -6.11306e+06 -0)
(8.39178e+06 -6.11049e+06 -0)
(8.16375e+06 -6.10398e+06 -0)
(7.94385e+06 -6.09391e+06 -0)
(7.73168e+06 -6.08059e+06 -0)
(7.52685e+06 -6.06433e+06 -0)
(7.32902e+06 -6.04539e+06 -0)
(7.13787e+06 -6.02402e+06 -0)
(6.95309e+06 -6.00042e+06 -0)
(6.77438e+06 -5.97481e+06 -0)
(6.60148e+06 -5.94736e+06 -0)
(6.43414e+06 -5.91824e+06 -0)
(6.27213e+06 -5.8876e+06 -0)
(6.11521e+06 -5.85557e+06 -0)
(5.96317e+06 -5.82229e+06 -0)
(5.81583e+06 -5.78787e+06 -0)
(5.67298e+06 -5.75242e+06 -0)
(5.53446e+06 -5.71603e+06 -0)
(5.4001e+06 -5.6788e+06 -0)
(5.26973e+06 -5.64082e+06 -0)
(5.14321e+06 -5.60215e+06 -0)
(5.02039e+06 -5.56287e+06 -0)
(4.90114e+06 -5.52306e+06 -0)
(4.78533e+06 -5.48276e+06 -0)
(4.67284e+06 -5.44205e+06 -0)
(4.56354e+06 -5.40096e+06 -0)
(4.45733e+06 -5.35956e+06 -0)
(4.3541e+06 -5.31789e+06 -0)
(4.25374e+06 -5.27598e+06 -0)
(4.15617e+06 -5.23389e+06 -0)
(4.06129e+06 -5.19165e+06 -0)
(3.969e+06 -5.1493e+06 -0)
(3.87923e+06 -5.10686e+06 -0)
(3.79189e+06 -5.06436e+06 -0)
(3.70691e+06 -5.02185e+06 -0)
(3.6242e+06 -4.97933e+06 -0)
(3.5437e+06 -4.93685e+06 -0)
(3.46533e+06 -4.89441e+06 -0)
(3.38904e+06 -4.85204e+06 -0)
(3.31475e+06 -4.80977e+06 -0)
(3.2424e+06 -4.76761e+06 -0)
(3.17194e+06 -4.72557e+06 -0)
(3.10331e+06 -4.68369e+06 -0)
(3.03645e+06 -4.64196e+06 -0)
(2.97131e+06 -4.6004e+06 -0)
(2.90784e+06 -4.55903e+06 -0)
(2.84599e+06 -4.51786e+06 -0)
(2.78571e+06 -4.4769e+06 -0)
(2.72695e+06 -4.43617e+06 -0)
(2.66967e+06 -4.39566e+06 -0)
(2.61383e+06 -4.35539e+06 -0)
(2.55939e+06 -4.31537e+06 -0)
(2.50631e+06 -4.27561e+06 -0)
(2.45454e+06 -4.23611e+06 -0)
(2.40405e+06 -4.19688e+06 -0)
(2.3548e+06 -4.15793e+06 -0)
(2.30676e+06 -4.11926e+06 -0)
(2.2599e+06 -4.08088e+06 -0)
(2.21418e+06 -4.04278e+06 -0)
(2.16957e+06 -4.00498e+06 -0)
(2.12603e+06 -3.96748e+06 -0)
(2.08355e+06 -3.93029e+06 -0)
(2.04209e+06 -3.8934e+06 -0)
(2.00164e+06 -3.85683e+06 -0)
(1.9622e+06 -3.82058e+06 -0)
(1.92345e+06 -3.78462e+06 -0)
(2.06799e+07 6.0304e+06 -0)
(2.06421e+07 4.59455e+06 -0)
(2.04262e+07 3.27538e+06 -0)
(2.00774e+07 2.08805e+06 -0)
(1.96353e+07 1.03441e+06 -0)
(1.91321e+07 108166 -0)
(1.85926e+07 -701248 -0)
(1.80352e+07 -1.40612e+06 -0)
(1.74731e+07 -2.01888e+06 -0)
(1.69153e+07 -2.55125e+06 -0)
(1.63682e+07 -3.01384e+06 -0)
(1.58356e+07 -3.41603e+06 -0)
(1.53201e+07 -3.76594e+06 -0)
(1.48229e+07 -4.0706e+06 -0)
(1.43447e+07 -4.33602e+06 -0)
(1.38855e+07 -4.56733e+06 -0)
(1.3445e+07 -4.76892e+06 -0)
(1.30228e+07 -4.94451e+06 -0)
(1.26182e+07 -5.09733e+06 -0)
(1.22303e+07 -5.23011e+06 -0)
(1.18586e+07 -5.34522e+06 -0)
(1.15021e+07 -5.44469e+06 -0)
(1.11602e+07 -5.53027e+06 -0)
(1.08321e+07 -5.60351e+06 -0)
(1.0517e+07 -5.66573e+06 -0)
(1.02143e+07 -5.71808e+06 -0)
(9.92332e+06 -5.7616e+06 -0)
(9.64347e+06 -5.79716e+06 -0)
(9.37417e+06 -5.82556e+06 -0)
(9.11486e+06 -5.8475e+06 -0)
(8.86505e+06 -5.8636e+06 -0)
(8.62426e+06 -5.8744e+06 -0)
(8.39204e+06 -5.88041e+06 -0)
(8.16798e+06 -5.88205e+06 -0)
(7.95168e+06 -5.87972e+06 -0)
(7.74279e+06 -5.87378e+06 -0)
(7.54095e+06 -5.86455e+06 -0)
(7.34584e+06 -5.85232e+06 -0)
(7.15717e+06 -5.83734e+06 -0)
(6.97465e+06 -5.81986e+06 -0)
(6.798e+06 -5.8001e+06 -0)
(6.62699e+06 -5.77825e+06 -0)
(6.46136e+06 -5.75448e+06 -0)
(6.30091e+06 -5.72897e+06 -0)
(6.14542e+06 -5.70187e+06 -0)
(5.99468e+06 -5.67331e+06 -0)
(5.84851e+06 -5.64343e+06 -0)
(5.70674e+06 -5.61234e+06 -0)
(5.56919e+06 -5.58014e+06 -0)
(5.43571e+06 -5.54694e+06 -0)
(5.30614e+06 -5.51283e+06 -0)
(5.18033e+06 -5.4779e+06 -0)
(5.05816e+06 -5.44223e+06 -0)
(4.93948e+06 -5.40588e+06 -0)
(4.82418e+06 -5.36893e+06 -0)
(4.71214e+06 -5.33144e+06 -0)
(4.60324e+06 -5.29347e+06 -0)
(4.49738e+06 -5.25508e+06 -0)
(4.39445e+06 -5.21631e+06 -0)
(4.29435e+06 -5.17722e+06 -0)
(4.19699e+06 -5.13784e+06 -0)
(4.10229e+06 -5.09822e+06 -0)
(4.01014e+06 -5.0584e+06 -0)
(3.92048e+06 -5.01842e+06 -0)
(3.83322e+06 -4.97831e+06 -0)
(3.74828e+06 -4.93809e+06 -0)
(3.6656e+06 -4.89781e+06 -0)
(3.58509e+06 -4.85748e+06 -0)
(3.5067e+06 -4.81713e+06 -0)
(3.43035e+06 -4.77679e+06 -0)
(3.35599e+06 -4.73649e+06 -0)
(3.28356e+06 -4.69623e+06 -0)
(3.21299e+06 -4.65604e+06 -0)
(3.14423e+06 -4.61595e+06 -0)
(3.07723e+06 -4.57595e+06 -0)
(3.01194e+06 -4.53608e+06 -0)
(2.9483e+06 -4.49635e+06 -0)
(2.88627e+06 -4.45677e+06 -0)
(2.82579e+06 -4.41736e+06 -0)
(2.76683e+06 -4.37812e+06 -0)
(2.70934e+06 -4.33906e+06 -0)
(2.65328e+06 -4.30021e+06 -0)
(2.5986e+06 -4.26156e+06 -0)
(2.54528e+06 -4.22313e+06 -0)
(2.49326e+06 -4.18493e+06 -0)
(2.44252e+06 -4.14696e+06 -0)
(2.39301e+06 -4.10923e+06 -0)
(2.3447e+06 -4.07174e+06 -0)
(2.29757e+06 -4.03451e+06 -0)
(2.25157e+06 -3.99754e+06 -0)
(2.20668e+06 -3.96084e+06 -0)
(2.16286e+06 -3.9244e+06 -0)
(2.12009e+06 -3.88823e+06 -0)
(2.07833e+06 -3.85234e+06 -0)
(2.03756e+06 -3.81674e+06 -0)
(1.99782e+06 -3.78144e+06 -0)
(1.95884e+06 -3.74645e+06 -0)
(1.93147e+07 5.93705e+06 -0)
(1.93537e+07 4.68666e+06 -0)
(1.92394e+07 3.51343e+06 -0)
(1.90035e+07 2.43469e+06 -0)
(1.86759e+07 1.4575e+06 -0)
(1.82824e+07 581717 -0)
(1.78444e+07 -197362 -0)
(1.73788e+07 -886962 -0)
(1.68983e+07 -1.49541e+06 -0)
(1.64125e+07 -2.03124e+06 -0)
(1.59285e+07 -2.50265e+06 -0)
(1.5451e+07 -2.91722e+06 -0)
(1.49836e+07 -3.28179e+06 -0)
(1.45284e+07 -3.60242e+06 -0)
(1.40868e+07 -3.88447e+06 -0)
(1.36597e+07 -4.13261e+06 -0)
(1.32473e+07 -4.35088e+06 -0)
(1.28498e+07 -4.54283e+06 -0)
(1.24669e+07 -4.7115e+06 -0)
(1.20983e+07 -4.85957e+06 -0)
(1.17436e+07 -4.98935e+06 -0)
(1.14023e+07 -5.10284e+06 -0)
(1.10739e+07 -5.20181e+06 -0)
(1.07578e+07 -5.28779e+06 -0)
(1.04535e+07 -5.36213e+06 -0)
(1.01605e+07 -5.42601e+06 -0)
(9.87823e+06 -5.48048e+06 -0)
(9.60622e+06 -5.52646e+06 -0)
(9.34399e+06 -5.56477e+06 -0)
(9.0911e+06 -5.59614e+06 -0)
(8.84709e+06 -5.6212e+06 -0)
(8.61157e+06 -5.64054e+06 -0)
(8.38414e+06 -5.65467e+06 -0)
(8.16444e+06 -5.66407e+06 -0)
(7.95212e+06 -5.66913e+06 -0)
(7.74684e+06 -5.67025e+06 -0)
(7.54831e+06 -5.66776e+06 -0)
(7.35623e+06 -5.66197e+06 -0)
(7.17032e+06 -5.65316e+06 -0)
(6.99033e+06 -5.64158e+06 -0)
(6.816e+06 -5.62747e+06 -0)
(6.6471e+06 -5.61103e+06 -0)
(6.48342e+06 -5.59245e+06 -0)
(6.32474e+06 -5.57193e+06 -0)
(6.17087e+06 -5.54961e+06 -0)
(6.02162e+06 -5.52565e+06 -0)
(5.87681e+06 -5.50018e+06 -0)
(5.73628e+06 -5.47334e+06 -0)
(5.59986e+06 -5.44523e+06 -0)
(5.46741e+06 -5.41597e+06 -0)
(5.33877e+06 -5.38566e+06 -0)
(5.21382e+06 -5.35438e+06 -0)
(5.09242e+06 -5.32223e+06 -0)
(4.97444e+06 -5.28929e+06 -0)
(4.85977e+06 -5.25562e+06 -0)
(4.74829e+06 -5.2213e+06 -0)
(4.6399e+06 -5.18639e+06 -0)
(4.53449e+06 -5.15095e+06 -0)
(4.43196e+06 -5.11504e+06 -0)
(4.33221e+06 -5.07871e+06 -0)
(4.23516e+06 -5.04201e+06 -0)
(4.14072e+06 -5.00498e+06 -0)
(4.0488e+06 -4.96766e+06 -0)
(3.95933e+06 -4.9301e+06 -0)
(3.87222e+06 -4.89233e+06 -0)
(3.78741e+06 -4.85439e+06 -0)
(3.70481e+06 -4.8163e+06 -0)
(3.62437e+06 -4.77811e+06 -0)
(3.54601e+06 -4.73983e+06 -0)
(3.46968e+06 -4.7015e+06 -0)
(3.39531e+06 -4.66313e+06 -0)
(3.32285e+06 -4.62476e+06 -0)
(3.25223e+06 -4.5864e+06 -0)
(3.1834e+06 -4.54808e+06 -0)
(3.11631e+06 -4.50981e+06 -0)
(3.05091e+06 -4.47161e+06 -0)
(2.98715e+06 -4.43351e+06 -0)
(2.92498e+06 -4.3955e+06 -0)
(2.86436e+06 -4.35761e+06 -0)
(2.80524e+06 -4.31986e+06 -0)
(2.74758e+06 -4.28225e+06 -0)
(2.69133e+06 -4.2448e+06 -0)
(2.63647e+06 -4.20752e+06 -0)
(2.58294e+06 -4.17041e+06 -0)
(2.53071e+06 -4.13349e+06 -0)
(2.47975e+06 -4.09677e+06 -0)
(2.43001e+06 -4.06026e+06 -0)
(2.38148e+06 -4.02396e+06 -0)
(2.3341e+06 -3.98788e+06 -0)
(2.28786e+06 -3.95202e+06 -0)
(2.24271e+06 -3.9164e+06 -0)
(2.19864e+06 -3.88102e+06 -0)
(2.1556e+06 -3.84588e+06 -0)
(2.11358e+06 -3.81099e+06 -0)
(2.07254e+06 -3.77636e+06 -0)
(2.0325e+06 -3.74198e+06 -0)
(1.9933e+06 -3.7079e+06 -0)
(1.81323e+07 5.79686e+06 -0)
(1.82185e+07 4.70163e+06 -0)
(1.81742e+07 3.65699e+06 -0)
(1.80215e+07 2.67977e+06 -0)
(1.77823e+07 1.77919e+06 -0)
(1.74772e+07 958571 -0)
(1.71239e+07 217049 -0)
(1.67372e+07 -448950 -0)
(1.63288e+07 -1.04456e+06 -0)
(1.59081e+07 -1.57566e+06 -0)
(1.54822e+07 -2.0483e+06 -0)
(1.50565e+07 -2.46842e+06 -0)
(1.46348e+07 -2.84155e+06 -0)
(1.42202e+07 -3.17282e+06 -0)
(1.38145e+07 -3.46684e+06 -0)
(1.34191e+07 -3.72773e+06 -0)
(1.30348e+07 -3.95917e+06 -0)