/*--------------------------------*- C++ -*----------------------------------*\
  =========                 |
  \\      /  F ield         | OpenFOAM: The Open Source CFD Toolbox
   \\    /   O peration     | Website:  https://openfoam.org
    \\  /    A nd           | Version:  7
     \\/     M anipulation  |
\*---------------------------------------------------------------------------*/
FoamFile
{
    version     2.0;
    format      ascii;
    class       volScalarField;
    location    "1.3e-12";
    object      ni;
}
// * * * * * * * * * * * * * * * * * * * * * * * * * * * * * * * * * * * * * //

dimensions      [0 -3 0 0 0 0 0];

internalField   nonuniform List<scalar> 
15066
(
1.01641e+13
1.01641e+13
1.01642e+13
1.01643e+13
1.01644e+13
1.01646e+13
1.01648e+13
1.01651e+13
1.01653e+13
1.01657e+13
1.0166e+13
1.01664e+13
1.01668e+13
1.01673e+13
1.01678e+13
1.01684e+13
1.01689e+13
1.01696e+13
1.01702e+13
1.01709e+13
1.01717e+13
1.01725e+13
1.01733e+13
1.01742e+13
1.01751e+13
1.01761e+13
1.01771e+13
1.01782e+13
1.01793e+13
1.01805e+13
1.01817e+13
1.0183e+13
1.01843e+13
1.01857e+13
1.01871e+13
1.01886e+13
1.01902e+13
1.01919e+13
1.01936e+13
1.01953e+13
1.01972e+13
1.01991e+13
1.02011e+13
1.02032e+13
1.02054e+13
1.02076e+13
1.021e+13
1.02124e+13
1.0215e+13
1.02176e+13
1.02204e+13
1.02233e+13
1.02263e+13
1.02294e+13
1.02327e+13
1.02361e+13
1.02397e+13
1.02434e+13
1.02473e+13
1.02514e+13
1.02557e+13
1.02602e+13
1.02649e+13
1.02698e+13
1.0275e+13
1.02805e+13
1.02862e+13
1.02923e+13
1.02987e+13
1.03055e+13
1.03127e+13
1.03203e+13
1.03284e+13
1.03371e+13
1.03463e+13
1.03562e+13
1.03668e+13
1.03781e+13
1.03904e+13
1.04037e+13
1.04181e+13
1.04339e+13
1.04511e+13
1.047e+13
1.0491e+13
1.05143e+13
1.05404e+13
1.05699e+13
1.06036e+13
1.06424e+13
1.06878e+13
1.07416e+13
1.08067e+13
1.08876e+13
1.09913e+13
1.11306e+13
1.13302e+13
1.16472e+13
1.22511e+13
1.38794e+13
1.0164e+13
1.01641e+13
1.01641e+13
1.01642e+13
1.01644e+13
1.01646e+13
1.01648e+13
1.0165e+13
1.01653e+13
1.01656e+13
1.0166e+13
1.01664e+13
1.01668e+13
1.01673e+13
1.01678e+13
1.01683e+13
1.01689e+13
1.01695e+13
1.01702e+13
1.01709e+13
1.01717e+13
1.01724e+13
1.01733e+13
1.01742e+13
1.01751e+13
1.01761e+13
1.01771e+13
1.01781e+13
1.01793e+13
1.01804e+13
1.01816e+13
1.01829e+13
1.01843e+13
1.01856e+13
1.01871e+13
1.01886e+13
1.01902e+13
1.01918e+13
1.01935e+13
1.01953e+13
1.01971e+13
1.0199e+13
1.0201e+13
1.02031e+13
1.02053e+13
1.02076e+13
1.02099e+13
1.02123e+13
1.02149e+13
1.02175e+13
1.02203e+13
1.02232e+13
1.02262e+13
1.02293e+13
1.02326e+13
1.0236e+13
1.02396e+13
1.02433e+13
1.02472e+13
1.02513e+13
1.02555e+13
1.026e+13
1.02647e+13
1.02696e+13
1.02748e+13
1.02803e+13
1.0286e+13
1.02921e+13
1.02985e+13
1.03052e+13
1.03124e+13
1.032e+13
1.03281e+13
1.03367e+13
1.03459e+13
1.03557e+13
1.03663e+13
1.03776e+13
1.03898e+13
1.0403e+13
1.04173e+13
1.04329e+13
1.045e+13
1.04688e+13
1.04895e+13
1.05126e+13
1.05383e+13
1.05674e+13
1.06004e+13
1.06384e+13
1.06825e+13
1.07346e+13
1.07971e+13
1.08737e+13
1.097e+13
1.10952e+13
1.12645e+13
1.15034e+13
1.18489e+13
1.22811e+13
1.0164e+13
1.0164e+13
1.01641e+13
1.01642e+13
1.01643e+13
1.01645e+13
1.01647e+13
1.01649e+13
1.01652e+13
1.01655e+13
1.01659e+13
1.01663e+13
1.01667e+13
1.01672e+13
1.01677e+13
1.01682e+13
1.01688e+13
1.01695e+13
1.01701e+13
1.01708e+13
1.01716e+13
1.01724e+13
1.01732e+13
1.01741e+13
1.0175e+13
1.0176e+13
1.0177e+13
1.01781e+13
1.01792e+13
1.01803e+13
1.01816e+13
1.01828e+13
1.01842e+13
1.01855e+13
1.0187e+13
1.01885e+13
1.01901e+13
1.01917e+13
1.01934e+13
1.01952e+13
1.0197e+13
1.01989e+13
1.02009e+13
1.0203e+13
1.02052e+13
1.02074e+13
1.02098e+13
1.02122e+13
1.02147e+13
1.02174e+13
1.02201e+13
1.0223e+13
1.0226e+13
1.02291e+13
1.02324e+13
1.02358e+13
1.02394e+13
1.02431e+13
1.02469e+13
1.0251e+13
1.02553e+13
1.02597e+13
1.02644e+13
1.02693e+13
1.02745e+13
1.02799e+13
1.02856e+13
1.02917e+13
1.0298e+13
1.03048e+13
1.03119e+13
1.03194e+13
1.03275e+13
1.0336e+13
1.03451e+13
1.03549e+13
1.03653e+13
1.03766e+13
1.03886e+13
1.04017e+13
1.04158e+13
1.04312e+13
1.0448e+13
1.04665e+13
1.04868e+13
1.05093e+13
1.05344e+13
1.05626e+13
1.05946e+13
1.0631e+13
1.0673e+13
1.0722e+13
1.07799e+13
1.08493e+13
1.09338e+13
1.10383e+13
1.11686e+13
1.13291e+13
1.1511e+13
1.16544e+13
1.01638e+13
1.01639e+13
1.0164e+13
1.01641e+13
1.01642e+13
1.01644e+13
1.01646e+13
1.01648e+13
1.01651e+13
1.01654e+13
1.01658e+13
1.01662e+13
1.01666e+13
1.01671e+13
1.01676e+13
1.01681e+13
1.01687e+13
1.01693e+13
1.017e+13
1.01707e+13
1.01715e+13
1.01722e+13
1.01731e+13
1.0174e+13
1.01749e+13
1.01758e+13
1.01769e+13
1.01779e+13
1.0179e+13
1.01802e+13
1.01814e+13
1.01827e+13
1.0184e+13
1.01854e+13
1.01868e+13
1.01883e+13
1.01899e+13
1.01915e+13
1.01932e+13
1.0195e+13
1.01968e+13
1.01988e+13
1.02007e+13
1.02028e+13
1.0205e+13
1.02072e+13
1.02096e+13
1.0212e+13
1.02145e+13
1.02172e+13
1.02199e+13
1.02228e+13
1.02257e+13
1.02289e+13
1.02321e+13
1.02355e+13
1.0239e+13
1.02427e+13
1.02466e+13
1.02506e+13
1.02549e+13
1.02593e+13
1.0264e+13
1.02688e+13
1.0274e+13
1.02794e+13
1.02851e+13
1.0291e+13
1.02974e+13
1.0304e+13
1.03111e+13
1.03186e+13
1.03265e+13
1.0335e+13
1.0344e+13
1.03536e+13
1.0364e+13
1.0375e+13
1.03869e+13
1.03997e+13
1.04136e+13
1.04287e+13
1.04451e+13
1.04631e+13
1.04828e+13
1.05046e+13
1.05288e+13
1.05558e+13
1.05862e+13
1.06205e+13
1.06597e+13
1.07047e+13
1.07568e+13
1.08177e+13
1.0889e+13
1.09725e+13
1.10688e+13
1.11746e+13
1.12766e+13
1.1343e+13
1.01637e+13
1.01637e+13
1.01638e+13
1.01639e+13
1.01641e+13
1.01642e+13
1.01644e+13
1.01647e+13
1.0165e+13
1.01653e+13
1.01656e+13
1.0166e+13
1.01665e+13
1.01669e+13
1.01674e+13
1.0168e+13
1.01686e+13
1.01692e+13
1.01698e+13
1.01706e+13
1.01713e+13
1.01721e+13
1.01729e+13
1.01738e+13
1.01747e+13
1.01757e+13
1.01767e+13
1.01777e+13
1.01789e+13
1.018e+13
1.01812e+13
1.01825e+13
1.01838e+13
1.01852e+13
1.01866e+13
1.01881e+13
1.01897e+13
1.01913e+13
1.0193e+13
1.01948e+13
1.01966e+13
1.01985e+13
1.02005e+13
1.02026e+13
1.02047e+13
1.0207e+13
1.02093e+13
1.02117e+13
1.02142e+13
1.02168e+13
1.02196e+13
1.02224e+13
1.02254e+13
1.02285e+13
1.02317e+13
1.02351e+13
1.02386e+13
1.02423e+13
1.02461e+13
1.02501e+13
1.02544e+13
1.02588e+13
1.02634e+13
1.02682e+13
1.02733e+13
1.02787e+13
1.02843e+13
1.02902e+13
1.02965e+13
1.03031e+13
1.03101e+13
1.03175e+13
1.03253e+13
1.03337e+13
1.03425e+13
1.0352e+13
1.03621e+13
1.0373e+13
1.03846e+13
1.03972e+13
1.04107e+13
1.04254e+13
1.04413e+13
1.04587e+13
1.04777e+13
1.04986e+13
1.05217e+13
1.05473e+13
1.05758e+13
1.06077e+13
1.06436e+13
1.06841e+13
1.07301e+13
1.07822e+13
1.08411e+13
1.09067e+13
1.09774e+13
1.10489e+13
1.11114e+13
1.115e+13
1.01635e+13
1.01636e+13
1.01636e+13
1.01637e+13
1.01639e+13
1.01641e+13
1.01643e+13
1.01645e+13
1.01648e+13
1.01651e+13
1.01655e+13
1.01659e+13
1.01663e+13
1.01667e+13
1.01673e+13
1.01678e+13
1.01684e+13
1.0169e+13
1.01697e+13
1.01704e+13
1.01711e+13
1.01719e+13
1.01727e+13
1.01736e+13
1.01745e+13
1.01755e+13
1.01765e+13
1.01775e+13
1.01786e+13
1.01798e+13
1.0181e+13
1.01823e+13
1.01836e+13
1.0185e+13
1.01864e+13
1.01879e+13
1.01894e+13
1.01911e+13
1.01927e+13
1.01945e+13
1.01963e+13
1.01982e+13
1.02002e+13
1.02023e+13
1.02044e+13
1.02066e+13
1.02089e+13
1.02113e+13
1.02139e+13
1.02165e+13
1.02192e+13
1.0222e+13
1.0225e+13
1.0228e+13
1.02313e+13
1.02346e+13
1.02381e+13
1.02417e+13
1.02456e+13
1.02495e+13
1.02537e+13
1.02581e+13
1.02627e+13
1.02675e+13
1.02725e+13
1.02778e+13
1.02833e+13
1.02892e+13
1.02954e+13
1.03019e+13
1.03088e+13
1.03161e+13
1.03238e+13
1.0332e+13
1.03407e+13
1.035e+13
1.03599e+13
1.03705e+13
1.03819e+13
1.03941e+13
1.04072e+13
1.04214e+13
1.04368e+13
1.04535e+13
1.04717e+13
1.04915e+13
1.05133e+13
1.05373e+13
1.05638e+13
1.0593e+13
1.06255e+13
1.06616e+13
1.07015e+13
1.07456e+13
1.07937e+13
1.08451e+13
1.08977e+13
1.09478e+13
1.09895e+13
1.10154e+13
1.01633e+13
1.01634e+13
1.01634e+13
1.01635e+13
1.01637e+13
1.01638e+13
1.01641e+13
1.01643e+13
1.01646e+13
1.01649e+13
1.01652e+13
1.01656e+13
1.01661e+13
1.01665e+13
1.0167e+13
1.01676e+13
1.01681e+13
1.01688e+13
1.01694e+13
1.01701e+13
1.01709e+13
1.01716e+13
1.01725e+13
1.01733e+13
1.01743e+13
1.01752e+13
1.01762e+13
1.01773e+13
1.01784e+13
1.01795e+13
1.01807e+13
1.0182e+13
1.01833e+13
1.01847e+13
1.01861e+13
1.01876e+13
1.01891e+13
1.01907e+13
1.01924e+13
1.01942e+13
1.0196e+13
1.01979e+13
1.01998e+13
1.02019e+13
1.0204e+13
1.02062e+13
1.02085e+13
1.02109e+13
1.02134e+13
1.0216e+13
1.02187e+13
1.02215e+13
1.02244e+13
1.02275e+13
1.02307e+13
1.0234e+13
1.02375e+13
1.02411e+13
1.02449e+13
1.02488e+13
1.02529e+13
1.02573e+13
1.02618e+13
1.02665e+13
1.02715e+13
1.02767e+13
1.02822e+13
1.0288e+13
1.02941e+13
1.03005e+13
1.03073e+13
1.03145e+13
1.0322e+13
1.03301e+13
1.03386e+13
1.03477e+13
1.03573e+13
1.03677e+13
1.03787e+13
1.03905e+13
1.04032e+13
1.04169e+13
1.04316e+13
1.04475e+13
1.04648e+13
1.04835e+13
1.0504e+13
1.05262e+13
1.05506e+13
1.05772e+13
1.06063e+13
1.06381e+13
1.06725e+13
1.07096e+13
1.07489e+13
1.07894e+13
1.08293e+13
1.08659e+13
1.08955e+13
1.09145e+13
1.01631e+13
1.01631e+13
1.01632e+13
1.01633e+13
1.01634e+13
1.01636e+13
1.01638e+13
1.01641e+13
1.01643e+13
1.01646e+13
1.0165e+13
1.01654e+13
1.01658e+13
1.01663e+13
1.01668e+13
1.01673e+13
1.01679e+13
1.01685e+13
1.01692e+13
1.01699e+13
1.01706e+13
1.01714e+13
1.01722e+13
1.01731e+13
1.0174e+13
1.01749e+13
1.01759e+13
1.0177e+13
1.01781e+13
1.01792e+13
1.01804e+13
1.01817e+13
1.0183e+13
1.01843e+13
1.01858e+13
1.01872e+13
1.01888e+13
1.01904e+13
1.0192e+13
1.01938e+13
1.01956e+13
1.01975e+13
1.01994e+13
1.02014e+13
1.02036e+13
1.02058e+13
1.0208e+13
1.02104e+13
1.02129e+13
1.02155e+13
1.02182e+13
1.02209e+13
1.02239e+13
1.02269e+13
1.023e+13
1.02333e+13
1.02368e+13
1.02403e+13
1.02441e+13
1.0248e+13
1.02521e+13
1.02563e+13
1.02608e+13
1.02655e+13
1.02704e+13
1.02755e+13
1.0281e+13
1.02866e+13
1.02926e+13
1.02989e+13
1.03056e+13
1.03126e+13
1.032e+13
1.03279e+13
1.03362e+13
1.0345e+13
1.03544e+13
1.03644e+13
1.03751e+13
1.03865e+13
1.03987e+13
1.04118e+13
1.04258e+13
1.04409e+13
1.04572e+13
1.04748e+13
1.04938e+13
1.05144e+13
1.05366e+13
1.05607e+13
1.05866e+13
1.06144e+13
1.06441e+13
1.06752e+13
1.07074e+13
1.07397e+13
1.07706e+13
1.07983e+13
1.08205e+13
1.08352e+13
1.01628e+13
1.01628e+13
1.01629e+13
1.0163e+13
1.01631e+13
1.01633e+13
1.01635e+13
1.01638e+13
1.0164e+13
1.01644e+13
1.01647e+13
1.01651e+13
1.01655e+13
1.0166e+13
1.01665e+13
1.0167e+13
1.01676e+13
1.01682e+13
1.01689e+13
1.01695e+13
1.01703e+13
1.01711e+13
1.01719e+13
1.01727e+13
1.01736e+13
1.01746e+13
1.01756e+13
1.01766e+13
1.01777e+13
1.01789e+13
1.01801e+13
1.01813e+13
1.01826e+13
1.0184e+13
1.01854e+13
1.01868e+13
1.01884e+13
1.019e+13
1.01916e+13
1.01933e+13
1.01951e+13
1.0197e+13
1.01989e+13
1.0201e+13
1.02031e+13
1.02052e+13
1.02075e+13
1.02099e+13
1.02123e+13
1.02149e+13
1.02175e+13
1.02203e+13
1.02232e+13
1.02262e+13
1.02293e+13
1.02325e+13
1.02359e+13
1.02395e+13
1.02432e+13
1.0247e+13
1.02511e+13
1.02553e+13
1.02597e+13
1.02643e+13
1.02691e+13
1.02742e+13
1.02795e+13
1.02851e+13
1.0291e+13
1.02971e+13
1.03036e+13
1.03105e+13
1.03177e+13
1.03254e+13
1.03335e+13
1.03421e+13
1.03512e+13
1.03608e+13
1.03711e+13
1.03821e+13
1.03937e+13
1.04062e+13
1.04195e+13
1.04338e+13
1.04491e+13
1.04656e+13
1.04832e+13
1.05021e+13
1.05223e+13
1.05439e+13
1.05669e+13
1.05912e+13
1.06167e+13
1.06429e+13
1.06695e+13
1.06956e+13
1.07201e+13
1.07417e+13
1.0759e+13
1.07708e+13
1.01625e+13
1.01625e+13
1.01626e+13
1.01627e+13
1.01628e+13
1.0163e+13
1.01632e+13
1.01634e+13
1.01637e+13
1.0164e+13
1.01644e+13
1.01648e+13
1.01652e+13
1.01657e+13
1.01661e+13
1.01667e+13
1.01673e+13
1.01679e+13
1.01685e+13
1.01692e+13
1.01699e+13
1.01707e+13
1.01715e+13
1.01724e+13
1.01733e+13
1.01742e+13
1.01752e+13
1.01762e+13
1.01773e+13
1.01785e+13
1.01797e+13
1.01809e+13
1.01822e+13
1.01835e+13
1.01849e+13
1.01864e+13
1.01879e+13
1.01895e+13
1.01911e+13
1.01929e+13
1.01946e+13
1.01965e+13
1.01984e+13
1.02004e+13
1.02025e+13
1.02047e+13
1.02069e+13
1.02092e+13
1.02117e+13
1.02142e+13
1.02168e+13
1.02196e+13
1.02224e+13
1.02254e+13
1.02285e+13
1.02317e+13
1.0235e+13
1.02385e+13
1.02422e+13
1.0246e+13
1.025e+13
1.02541e+13
1.02584e+13
1.0263e+13
1.02677e+13
1.02727e+13
1.02779e+13
1.02834e+13
1.02891e+13
1.02952e+13
1.03015e+13
1.03082e+13
1.03153e+13
1.03227e+13
1.03305e+13
1.03388e+13
1.03476e+13
1.03569e+13
1.03668e+13
1.03773e+13
1.03884e+13
1.04003e+13
1.04129e+13
1.04263e+13
1.04407e+13
1.04559e+13
1.04722e+13
1.04894e+13
1.05078e+13
1.05271e+13
1.05475e+13
1.05688e+13
1.05907e+13
1.06129e+13
1.06351e+13
1.06564e+13
1.06762e+13
1.06935e+13
1.07074e+13
1.07171e+13
1.01621e+13
1.01622e+13
1.01622e+13
1.01623e+13
1.01625e+13
1.01627e+13
1.01629e+13
1.01631e+13
1.01634e+13
1.01637e+13
1.0164e+13
1.01644e+13
1.01648e+13
1.01653e+13
1.01658e+13
1.01663e+13
1.01669e+13
1.01675e+13
1.01681e+13
1.01688e+13
1.01695e+13
1.01703e+13
1.01711e+13
1.0172e+13
1.01729e+13
1.01738e+13
1.01748e+13
1.01758e+13
1.01769e+13
1.0178e+13
1.01792e+13
1.01804e+13
1.01817e+13
1.01831e+13
1.01845e+13
1.01859e+13
1.01874e+13
1.0189e+13
1.01906e+13
1.01923e+13
1.01941e+13
1.01959e+13
1.01978e+13
1.01998e+13
1.02019e+13
1.0204e+13
1.02062e+13
1.02086e+13
1.0211e+13
1.02135e+13
1.02161e+13
1.02188e+13
1.02216e+13
1.02245e+13
1.02276e+13
1.02307e+13
1.0234e+13
1.02375e+13
1.02411e+13
1.02448e+13
1.02487e+13
1.02528e+13
1.02571e+13
1.02615e+13
1.02662e+13
1.02711e+13
1.02762e+13
1.02815e+13
1.02872e+13
1.0293e+13
1.02992e+13
1.03057e+13
1.03126e+13
1.03198e+13
1.03274e+13
1.03354e+13
1.03439e+13
1.03528e+13
1.03622e+13
1.03723e+13
1.03828e+13
1.03941e+13
1.0406e+13
1.04186e+13
1.04319e+13
1.04461e+13
1.0461e+13
1.04768e+13
1.04933e+13
1.05107e+13
1.05287e+13
1.05473e+13
1.05662e+13
1.05852e+13
1.06038e+13
1.06216e+13
1.06378e+13
1.0652e+13
1.06634e+13
1.06715e+13
1.01618e+13
1.01618e+13
1.01619e+13
1.0162e+13
1.01621e+13
1.01623e+13
1.01625e+13
1.01627e+13
1.0163e+13
1.01633e+13
1.01636e+13
1.0164e+13
1.01644e+13
1.01649e+13
1.01654e+13
1.01659e+13
1.01665e+13
1.01671e+13
1.01677e+13
1.01684e+13
1.01691e+13
1.01699e+13
1.01707e+13
1.01715e+13
1.01724e+13
1.01734e+13
1.01743e+13
1.01754e+13
1.01764e+13
1.01776e+13
1.01787e+13
1.01799e+13
1.01812e+13
1.01825e+13
1.01839e+13
1.01854e+13
1.01869e+13
1.01884e+13
1.019e+13
1.01917e+13
1.01935e+13
1.01953e+13
1.01972e+13
1.01991e+13
1.02012e+13
1.02033e+13
1.02055e+13
1.02078e+13
1.02102e+13
1.02127e+13
1.02152e+13
1.02179e+13
1.02207e+13
1.02236e+13
1.02266e+13
1.02297e+13
1.0233e+13
1.02364e+13
1.02399e+13
1.02436e+13
1.02474e+13
1.02514e+13
1.02556e+13
1.026e+13
1.02646e+13
1.02693e+13
1.02743e+13
1.02795e+13
1.0285e+13
1.02908e+13
1.02968e+13
1.03031e+13
1.03097e+13
1.03167e+13
1.0324e+13
1.03317e+13
1.03399e+13
1.03484e+13
1.03575e+13
1.0367e+13
1.0377e+13
1.03876e+13
1.03988e+13
1.04106e+13
1.0423e+13
1.04361e+13
1.04498e+13
1.04642e+13
1.04791e+13
1.04946e+13
1.05106e+13
1.05269e+13
1.05434e+13
1.05596e+13
1.05754e+13
1.05903e+13
1.06039e+13
1.06157e+13
1.06252e+13
1.06322e+13
1.01613e+13
1.01614e+13
1.01614e+13
1.01615e+13
1.01617e+13
1.01619e+13
1.01621e+13
1.01623e+13
1.01626e+13
1.01629e+13
1.01632e+13
1.01636e+13
1.0164e+13
1.01645e+13
1.01649e+13
1.01655e+13
1.0166e+13
1.01666e+13
1.01673e+13
1.01679e+13
1.01687e+13
1.01694e+13
1.01702e+13
1.01711e+13
1.01719e+13
1.01729e+13
1.01738e+13
1.01749e+13
1.01759e+13
1.0177e+13
1.01782e+13
1.01794e+13
1.01807e+13
1.0182e+13
1.01834e+13
1.01848e+13
1.01863e+13
1.01878e+13
1.01894e+13
1.01911e+13
1.01928e+13
1.01946e+13
1.01965e+13
1.01984e+13
1.02005e+13
1.02025e+13
1.02047e+13
1.0207e+13
1.02093e+13
1.02118e+13
1.02143e+13
1.0217e+13
1.02197e+13
1.02226e+13
1.02255e+13
1.02286e+13
1.02318e+13
1.02351e+13
1.02386e+13
1.02422e+13
1.0246e+13
1.025e+13
1.02541e+13
1.02583e+13
1.02628e+13
1.02675e+13
1.02723e+13
1.02774e+13
1.02828e+13
1.02883e+13
1.02942e+13
1.03003e+13
1.03067e+13
1.03134e+13
1.03205e+13
1.03279e+13
1.03357e+13
1.03439e+13
1.03525e+13
1.03615e+13
1.0371e+13
1.0381e+13
1.03915e+13
1.04025e+13
1.0414e+13
1.04261e+13
1.04387e+13
1.04517e+13
1.04653e+13
1.04792e+13
1.04934e+13
1.05077e+13
1.0522e+13
1.05361e+13
1.05496e+13
1.05623e+13
1.05738e+13
1.05837e+13
1.05918e+13
1.05979e+13
1.01609e+13
1.01609e+13
1.0161e+13
1.01611e+13
1.01612e+13
1.01614e+13
1.01616e+13
1.01618e+13
1.01621e+13
1.01624e+13
1.01628e+13
1.01631e+13
1.01635e+13
1.0164e+13
1.01645e+13
1.0165e+13
1.01656e+13
1.01662e+13
1.01668e+13
1.01675e+13
1.01682e+13
1.01689e+13
1.01697e+13
1.01705e+13
1.01714e+13
1.01723e+13
1.01733e+13
1.01743e+13
1.01754e+13
1.01765e+13
1.01776e+13
1.01788e+13
1.01801e+13
1.01814e+13
1.01827e+13
1.01842e+13
1.01856e+13
1.01872e+13
1.01887e+13
1.01904e+13
1.01921e+13
1.01939e+13
1.01957e+13
1.01977e+13
1.01997e+13
1.02017e+13
1.02039e+13
1.02061e+13
1.02084e+13
1.02109e+13
1.02134e+13
1.0216e+13
1.02187e+13
1.02215e+13
1.02244e+13
1.02274e+13
1.02306e+13
1.02339e+13
1.02373e+13
1.02408e+13
1.02445e+13
1.02484e+13
1.02524e+13
1.02566e+13
1.02609e+13
1.02655e+13
1.02702e+13
1.02752e+13
1.02804e+13
1.02858e+13
1.02914e+13
1.02974e+13
1.03036e+13
1.031e+13
1.03168e+13
1.03239e+13
1.03314e+13
1.03392e+13
1.03474e+13
1.03559e+13
1.03649e+13
1.03743e+13
1.03841e+13
1.03944e+13
1.04051e+13
1.04162e+13
1.04277e+13
1.04396e+13
1.04518e+13
1.04643e+13
1.04769e+13
1.04896e+13
1.05021e+13
1.05144e+13
1.0526e+13
1.05369e+13
1.05468e+13
1.05553e+13
1.05623e+13
1.05675e+13
1.01604e+13
1.01605e+13
1.01605e+13
1.01606e+13
1.01608e+13
1.01609e+13
1.01611e+13
1.01614e+13
1.01616e+13
1.01619e+13
1.01623e+13
1.01626e+13
1.01631e+13
1.01635e+13
1.0164e+13
1.01645e+13
1.0165e+13
1.01656e+13
1.01663e+13
1.01669e+13
1.01676e+13
1.01684e+13
1.01692e+13
1.017e+13
1.01709e+13
1.01718e+13
1.01727e+13
1.01737e+13
1.01748e+13
1.01759e+13
1.0177e+13
1.01782e+13
1.01794e+13
1.01807e+13
1.01821e+13
1.01835e+13
1.01849e+13
1.01865e+13
1.0188e+13
1.01897e+13
1.01914e+13
1.01931e+13
1.01949e+13
1.01968e+13
1.01988e+13
1.02009e+13
1.0203e+13
1.02052e+13
1.02075e+13
1.02099e+13
1.02123e+13
1.02149e+13
1.02176e+13
1.02203e+13
1.02232e+13
1.02262e+13
1.02293e+13
1.02325e+13
1.02358e+13
1.02393e+13
1.02429e+13
1.02467e+13
1.02506e+13
1.02547e+13
1.0259e+13
1.02634e+13
1.0268e+13
1.02728e+13
1.02779e+13
1.02831e+13
1.02886e+13
1.02943e+13
1.03003e+13
1.03065e+13
1.0313e+13
1.03198e+13
1.0327e+13
1.03344e+13
1.03422e+13
1.03503e+13
1.03587e+13
1.03675e+13
1.03767e+13
1.03863e+13
1.03962e+13
1.04064e+13
1.0417e+13
1.04278e+13
1.04388e+13
1.04501e+13
1.04613e+13
1.04726e+13
1.04836e+13
1.04943e+13
1.05045e+13
1.05139e+13
1.05224e+13
1.05298e+13
1.05359e+13
1.05405e+13
1.01599e+13
1.01599e+13
1.016e+13
1.01601e+13
1.01602e+13
1.01604e+13
1.01606e+13
1.01608e+13
1.01611e+13
1.01614e+13
1.01617e+13
1.01621e+13
1.01625e+13
1.0163e+13
1.01634e+13
1.0164e+13
1.01645e+13
1.01651e+13
1.01657e+13
1.01664e+13
1.01671e+13
1.01678e+13
1.01686e+13
1.01694e+13
1.01703e+13
1.01712e+13
1.01721e+13
1.01731e+13
1.01742e+13
1.01752e+13
1.01764e+13
1.01775e+13
1.01788e+13
1.01801e+13
1.01814e+13
1.01828e+13
1.01842e+13
1.01857e+13
1.01873e+13
1.01889e+13
1.01906e+13
1.01923e+13
1.01941e+13
1.0196e+13
1.01979e+13
1.01999e+13
1.0202e+13
1.02042e+13
1.02065e+13
1.02088e+13
1.02112e+13
1.02138e+13
1.02164e+13
1.02191e+13
1.02219e+13
1.02248e+13
1.02279e+13
1.0231e+13
1.02343e+13
1.02377e+13
1.02413e+13
1.0245e+13
1.02488e+13
1.02528e+13
1.02569e+13
1.02612e+13
1.02657e+13
1.02704e+13
1.02753e+13
1.02803e+13
1.02856e+13
1.02911e+13
1.02969e+13
1.03029e+13
1.03091e+13
1.03156e+13
1.03224e+13
1.03295e+13
1.03369e+13
1.03445e+13
1.03525e+13
1.03608e+13
1.03693e+13
1.03782e+13
1.03874e+13
1.03968e+13
1.04065e+13
1.04164e+13
1.04264e+13
1.04365e+13
1.04466e+13
1.04566e+13
1.04663e+13
1.04758e+13
1.04847e+13
1.04929e+13
1.05003e+13
1.05068e+13
1.05121e+13
1.05163e+13
1.01594e+13
1.01594e+13
1.01595e+13
1.01596e+13
1.01597e+13
1.01599e+13
1.01601e+13
1.01603e+13
1.01606e+13
1.01609e+13
1.01612e+13
1.01616e+13
1.0162e+13
1.01624e+13
1.01629e+13
1.01634e+13
1.01639e+13
1.01645e+13
1.01651e+13
1.01658e+13
1.01665e+13
1.01672e+13
1.0168e+13
1.01688e+13
1.01696e+13
1.01705e+13
1.01715e+13
1.01725e+13
1.01735e+13
1.01746e+13
1.01757e+13
1.01769e+13
1.01781e+13
1.01793e+13
1.01806e+13
1.0182e+13
1.01834e+13
1.01849e+13
1.01865e+13
1.01881e+13
1.01897e+13
1.01914e+13
1.01932e+13
1.01951e+13
1.0197e+13
1.0199e+13
1.0201e+13
1.02032e+13
1.02054e+13
1.02077e+13
1.02101e+13
1.02126e+13
1.02152e+13
1.02178e+13
1.02206e+13
1.02235e+13
1.02264e+13
1.02295e+13
1.02327e+13
1.02361e+13
1.02395e+13
1.02431e+13
1.02469e+13
1.02507e+13
1.02548e+13
1.0259e+13
1.02633e+13
1.02679e+13
1.02726e+13
1.02775e+13
1.02826e+13
1.02879e+13
1.02934e+13
1.02992e+13
1.03052e+13
1.03114e+13
1.03178e+13
1.03245e+13
1.03315e+13
1.03387e+13
1.03462e+13
1.0354e+13
1.0362e+13
1.03703e+13
1.03787e+13
1.03874e+13
1.03963e+13
1.04053e+13
1.04144e+13
1.04235e+13
1.04326e+13
1.04415e+13
1.04502e+13
1.04586e+13
1.04664e+13
1.04737e+13
1.04802e+13
1.04859e+13
1.04906e+13
1.04944e+13
1.01588e+13
1.01588e+13
1.01589e+13
1.0159e+13
1.01591e+13
1.01593e+13
1.01595e+13
1.01597e+13
1.016e+13
1.01603e+13
1.01606e+13
1.0161e+13
1.01614e+13
1.01618e+13
1.01623e+13
1.01628e+13
1.01633e+13
1.01639e+13
1.01645e+13
1.01652e+13
1.01658e+13
1.01666e+13
1.01673e+13
1.01681e+13
1.0169e+13
1.01699e+13
1.01708e+13
1.01718e+13
1.01728e+13
1.01739e+13
1.0175e+13
1.01761e+13
1.01773e+13
1.01786e+13
1.01799e+13
1.01812e+13
1.01826e+13
1.01841e+13
1.01856e+13
1.01872e+13
1.01888e+13
1.01905e+13
1.01923e+13
1.01941e+13
1.0196e+13
1.0198e+13
1.02e+13
1.02021e+13
1.02043e+13
1.02066e+13
1.02089e+13
1.02113e+13
1.02139e+13
1.02165e+13
1.02192e+13
1.0222e+13
1.02249e+13
1.0228e+13
1.02311e+13
1.02344e+13
1.02377e+13
1.02412e+13
1.02449e+13
1.02487e+13
1.02526e+13
1.02566e+13
1.02609e+13
1.02653e+13
1.02698e+13
1.02746e+13
1.02795e+13
1.02846e+13
1.02899e+13
1.02954e+13
1.03011e+13
1.0307e+13
1.03132e+13
1.03196e+13
1.03262e+13
1.0333e+13
1.034e+13
1.03473e+13
1.03548e+13
1.03624e+13
1.03703e+13
1.03783e+13
1.03865e+13
1.03947e+13
1.0403e+13
1.04112e+13
1.04194e+13
1.04274e+13
1.04352e+13
1.04426e+13
1.04496e+13
1.0456e+13
1.04618e+13
1.04668e+13
1.04711e+13
1.04744e+13
1.01582e+13
1.01582e+13
1.01583e+13
1.01584e+13
1.01585e+13
1.01587e+13
1.01589e+13
1.01591e+13
1.01594e+13
1.01597e+13
1.016e+13
1.01603e+13
1.01607e+13
1.01612e+13
1.01616e+13
1.01621e+13
1.01627e+13
1.01632e+13
1.01638e+13
1.01645e+13
1.01652e+13
1.01659e+13
1.01667e+13
1.01675e+13
1.01683e+13
1.01692e+13
1.01701e+13
1.01711e+13
1.01721e+13
1.01731e+13
1.01742e+13
1.01753e+13
1.01765e+13
1.01778e+13
1.01791e+13
1.01804e+13
1.01818e+13
1.01832e+13
1.01847e+13
1.01863e+13
1.01879e+13
1.01896e+13
1.01913e+13
1.01931e+13
1.0195e+13
1.01969e+13
1.01989e+13
1.0201e+13
1.02031e+13
1.02053e+13
1.02077e+13
1.021e+13
1.02125e+13
1.02151e+13
1.02178e+13
1.02205e+13
1.02234e+13
1.02263e+13
1.02294e+13
1.02326e+13
1.02359e+13
1.02393e+13
1.02428e+13
1.02465e+13
1.02503e+13
1.02543e+13
1.02583e+13
1.02626e+13
1.0267e+13
1.02716e+13
1.02763e+13
1.02812e+13
1.02863e+13
1.02916e+13
1.0297e+13
1.03027e+13
1.03085e+13
1.03146e+13
1.03208e+13
1.03272e+13
1.03338e+13
1.03407e+13
1.03476e+13
1.03548e+13
1.0362e+13
1.03694e+13
1.03769e+13
1.03845e+13
1.0392e+13
1.03995e+13
1.04069e+13
1.04141e+13
1.04211e+13
1.04277e+13
1.04339e+13
1.04397e+13
1.04448e+13
1.04493e+13
1.04532e+13
1.04562e+13
1.01576e+13
1.01576e+13
1.01577e+13
1.01578e+13
1.01579e+13
1.0158e+13
1.01582e+13
1.01585e+13
1.01587e+13
1.0159e+13
1.01593e+13
1.01597e+13
1.01601e+13
1.01605e+13
1.0161e+13
1.01615e+13
1.0162e+13
1.01626e+13
1.01632e+13
1.01638e+13
1.01645e+13
1.01652e+13
1.01659e+13
1.01667e+13
1.01676e+13
1.01684e+13
1.01693e+13
1.01703e+13
1.01713e+13
1.01723e+13
1.01734e+13
1.01745e+13
1.01757e+13
1.01769e+13
1.01782e+13
1.01795e+13
1.01809e+13
1.01823e+13
1.01838e+13
1.01853e+13
1.01869e+13
1.01886e+13
1.01903e+13
1.0192e+13
1.01939e+13
1.01958e+13
1.01978e+13
1.01998e+13
1.02019e+13
1.02041e+13
1.02064e+13
1.02087e+13
1.02111e+13
1.02136e+13
1.02163e+13
1.0219e+13
1.02217e+13
1.02246e+13
1.02276e+13
1.02307e+13
1.02339e+13
1.02373e+13
1.02407e+13
1.02443e+13
1.0248e+13
1.02518e+13
1.02558e+13
1.02599e+13
1.02641e+13
1.02685e+13
1.02731e+13
1.02778e+13
1.02827e+13
1.02877e+13
1.02929e+13
1.02983e+13
1.03038e+13
1.03096e+13
1.03155e+13
1.03215e+13
1.03277e+13
1.03341e+13
1.03406e+13
1.03473e+13
1.0354e+13
1.03609e+13
1.03677e+13
1.03746e+13
1.03815e+13
1.03884e+13
1.03951e+13
1.04016e+13
1.04079e+13
1.04138e+13
1.04194e+13
1.04246e+13
1.04292e+13
1.04332e+13
1.04367e+13
1.04394e+13
1.01569e+13
1.01569e+13
1.0157e+13
1.01571e+13
1.01572e+13
1.01574e+13
1.01576e+13
1.01578e+13
1.0158e+13
1.01583e+13
1.01587e+13
1.0159e+13
1.01594e+13
1.01598e+13
1.01603e+13
1.01608e+13
1.01613e+13
1.01619e+13
1.01624e+13
1.01631e+13
1.01637e+13
1.01645e+13
1.01652e+13
1.0166e+13
1.01668e+13
1.01677e+13
1.01686e+13
1.01695e+13
1.01705e+13
1.01715e+13
1.01726e+13
1.01737e+13
1.01749e+13
1.01761e+13
1.01773e+13
1.01786e+13
1.018e+13
1.01814e+13
1.01828e+13
1.01843e+13
1.01859e+13
1.01875e+13
1.01892e+13
1.0191e+13
1.01928e+13
1.01946e+13
1.01966e+13
1.01986e+13
1.02006e+13
1.02028e+13
1.0205e+13
1.02073e+13
1.02097e+13
1.02122e+13
1.02147e+13
1.02173e+13
1.02201e+13
1.02229e+13
1.02258e+13
1.02288e+13
1.0232e+13
1.02352e+13
1.02385e+13
1.0242e+13
1.02456e+13
1.02493e+13
1.02531e+13
1.02571e+13
1.02612e+13
1.02654e+13
1.02698e+13
1.02743e+13
1.0279e+13
1.02838e+13
1.02888e+13
1.02939e+13
1.02992e+13
1.03046e+13
1.03102e+13
1.03159e+13
1.03217e+13
1.03277e+13
1.03338e+13
1.034e+13
1.03462e+13
1.03525e+13
1.03589e+13
1.03652e+13
1.03715e+13
1.03778e+13
1.03838e+13
1.03898e+13
1.03954e+13
1.04008e+13
1.04059e+13
1.04105e+13
1.04147e+13
1.04184e+13
1.04215e+13
1.0424e+13
1.01562e+13
1.01562e+13
1.01563e+13
1.01564e+13
1.01565e+13
1.01567e+13
1.01569e+13
1.01571e+13
1.01573e+13
1.01576e+13
1.0158e+13
1.01583e+13
1.01587e+13
1.01591e+13
1.01596e+13
1.016e+13
1.01606e+13
1.01611e+13
1.01617e+13
1.01623e+13
1.0163e+13
1.01637e+13
1.01644e+13
1.01652e+13
1.0166e+13
1.01669e+13
1.01677e+13
1.01687e+13
1.01696e+13
1.01707e+13
1.01717e+13
1.01728e+13
1.0174e+13
1.01752e+13
1.01764e+13
1.01777e+13
1.0179e+13
1.01804e+13
1.01818e+13
1.01833e+13
1.01849e+13
1.01865e+13
1.01881e+13
1.01898e+13
1.01916e+13
1.01934e+13
1.01953e+13
1.01973e+13
1.01993e+13
1.02015e+13
1.02036e+13
1.02059e+13
1.02082e+13
1.02106e+13
1.02131e+13
1.02157e+13
1.02184e+13
1.02211e+13
1.0224e+13
1.02269e+13
1.02299e+13
1.02331e+13
1.02363e+13
1.02397e+13
1.02432e+13
1.02467e+13
1.02505e+13
1.02543e+13
1.02582e+13
1.02623e+13
1.02665e+13
1.02708e+13
1.02753e+13
1.02799e+13
1.02846e+13
1.02895e+13
1.02945e+13
1.02997e+13
1.03049e+13
1.03103e+13
1.03158e+13
1.03214e+13
1.03271e+13
1.03328e+13
1.03386e+13
1.03445e+13
1.03504e+13
1.03562e+13
1.0362e+13
1.03677e+13
1.03732e+13
1.03786e+13
1.03838e+13
1.03887e+13
1.03932e+13
1.03974e+13
1.04012e+13
1.04045e+13
1.04074e+13
1.04097e+13
1.01555e+13
1.01555e+13
1.01556e+13
1.01557e+13
1.01558e+13
1.0156e+13
1.01561e+13
1.01564e+13
1.01566e+13
1.01569e+13
1.01572e+13
1.01576e+13
1.01579e+13
1.01584e+13
1.01588e+13
1.01593e+13
1.01598e+13
1.01603e+13
1.01609e+13
1.01615e+13
1.01622e+13
1.01629e+13
1.01636e+13
1.01644e+13
1.01652e+13
1.0166e+13
1.01669e+13
1.01678e+13
1.01688e+13
1.01698e+13
1.01708e+13
1.01719e+13
1.0173e+13
1.01742e+13
1.01754e+13
1.01767e+13
1.0178e+13
1.01794e+13
1.01808e+13
1.01823e+13
1.01838e+13
1.01853e+13
1.0187e+13
1.01887e+13
1.01904e+13
1.01922e+13
1.01941e+13
1.0196e+13
1.0198e+13
1.02001e+13
1.02022e+13
1.02044e+13
1.02067e+13
1.0209e+13
1.02115e+13
1.0214e+13
1.02166e+13
1.02193e+13
1.02221e+13
1.02249e+13
1.02279e+13
1.02309e+13
1.02341e+13
1.02373e+13
1.02407e+13
1.02442e+13
1.02477e+13
1.02514e+13
1.02552e+13
1.02591e+13
1.02632e+13
1.02673e+13
1.02716e+13
1.0276e+13
1.02805e+13
1.02852e+13
1.02899e+13
1.02948e+13
1.02997e+13
1.03048e+13
1.031e+13
1.03152e+13
1.03205e+13
1.03259e+13
1.03313e+13
1.03367e+13
1.03421e+13
1.03475e+13
1.03528e+13
1.03581e+13
1.03632e+13
1.03681e+13
1.03728e+13
1.03772e+13
1.03814e+13
1.03852e+13
1.03886e+13
1.03917e+13
1.03943e+13
1.03964e+13
1.01547e+13
1.01548e+13
1.01548e+13
1.01549e+13
1.01551e+13
1.01552e+13
1.01554e+13
1.01556e+13
1.01559e+13
1.01561e+13
1.01564e+13
1.01568e+13
1.01572e+13
1.01576e+13
1.0158e+13
1.01585e+13
1.0159e+13
1.01595e+13
1.01601e+13
1.01607e+13
1.01614e+13
1.01621e+13
1.01628e+13
1.01635e+13
1.01643e+13
1.01652e+13
1.0166e+13
1.01669e+13
1.01679e+13
1.01689e+13
1.01699e+13
1.0171e+13
1.01721e+13
1.01732e+13
1.01744e+13
1.01757e+13
1.0177e+13
1.01783e+13
1.01797e+13
1.01812e+13
1.01827e+13
1.01842e+13
1.01858e+13
1.01875e+13
1.01892e+13
1.01909e+13
1.01928e+13
1.01947e+13
1.01966e+13
1.01987e+13
1.02007e+13
1.02029e+13
1.02051e+13
1.02074e+13
1.02098e+13
1.02123e+13
1.02148e+13
1.02174e+13
1.02201e+13
1.02229e+13
1.02258e+13
1.02287e+13
1.02318e+13
1.02349e+13
1.02382e+13
1.02415e+13
1.0245e+13
1.02486e+13
1.02522e+13
1.0256e+13
1.02598e+13
1.02638e+13
1.02679e+13
1.02721e+13
1.02764e+13
1.02808e+13
1.02853e+13
1.02899e+13
1.02946e+13
1.02994e+13
1.03043e+13
1.03092e+13
1.03142e+13
1.03192e+13
1.03242e+13
1.03292e+13
1.03343e+13
1.03392e+13
1.03441e+13
1.03489e+13
1.03536e+13
1.03581e+13
1.03624e+13
1.03665e+13
1.03702e+13
1.03737e+13
1.03769e+13
1.03797e+13
1.03821e+13
1.0384e+13
1.0154e+13
1.0154e+13
1.01541e+13
1.01542e+13
1.01543e+13
1.01544e+13
1.01546e+13
1.01548e+13
1.01551e+13
1.01553e+13
1.01557e+13
1.0156e+13
1.01564e+13
1.01568e+13
1.01572e+13
1.01577e+13
1.01582e+13
1.01587e+13
1.01593e+13
1.01599e+13
1.01605e+13
1.01612e+13
1.01619e+13
1.01627e+13
1.01634e+13
1.01643e+13
1.01651e+13
1.0166e+13
1.01669e+13
1.01679e+13
1.01689e+13
1.017e+13
1.01711e+13
1.01722e+13
1.01734e+13
1.01746e+13
1.01759e+13
1.01772e+13
1.01786e+13
1.018e+13
1.01815e+13
1.0183e+13
1.01846e+13
1.01862e+13
1.01879e+13
1.01896e+13
1.01914e+13
1.01933e+13
1.01952e+13
1.01972e+13
1.01992e+13
1.02014e+13
1.02035e+13
1.02058e+13
1.02081e+13
1.02105e+13
1.0213e+13
1.02155e+13
1.02181e+13
1.02209e+13
1.02236e+13
1.02265e+13
1.02295e+13
1.02325e+13
1.02357e+13
1.02389e+13