/*--------------------------------*- C++ -*----------------------------------*\
  =========                 |
  \\      /  F ield         | OpenFOAM: The Open Source CFD Toolbox
   \\    /   O peration     | Website:  https://openfoam.org
    \\  /    A nd           | Version:  7
     \\/     M anipulation  |
\*---------------------------------------------------------------------------*/
FoamFile
{
    version     2.0;
    format      ascii;
    class       volVectorField;
    location    "5e-13";
    object      EAext;
}
// * * * * * * * * * * * * * * * * * * * * * * * * * * * * * * * * * * * * * //

dimensions      [1 1 -3 0 0 -1 0];

internalField   nonuniform List<vector> 
15000
(
(1.61539e+06 -3.99943e+06 -0)
(1.58154e+06 -3.95792e+06 -0)
(1.54846e+06 -3.91697e+06 -0)
(1.5162e+06 -3.8765e+06 -0)
(1.48473e+06 -3.83649e+06 -0)
(1.45404e+06 -3.79696e+06 -0)
(1.42411e+06 -3.75789e+06 -0)
(1.39492e+06 -3.71928e+06 -0)
(1.36644e+06 -3.68114e+06 -0)
(1.33867e+06 -3.64345e+06 -0)
(1.31156e+06 -3.60621e+06 -0)
(1.28512e+06 -3.56942e+06 -0)
(1.25932e+06 -3.53307e+06 -0)
(1.23414e+06 -3.49716e+06 -0)
(1.20956e+06 -3.46167e+06 -0)
(1.18557e+06 -3.42662e+06 -0)
(1.16216e+06 -3.39199e+06 -0)
(1.1393e+06 -3.35779e+06 -0)
(1.11699e+06 -3.32399e+06 -0)
(1.0952e+06 -3.29061e+06 -0)
(1.07392e+06 -3.25763e+06 -0)
(1.05314e+06 -3.22505e+06 -0)
(1.03285e+06 -3.19287e+06 -0)
(1.01303e+06 -3.16109e+06 -0)
(993668 -3.12969e+06 -0)
(974752 -3.09867e+06 -0)
(956271 -3.06804e+06 -0)
(938213 -3.03778e+06 -0)
(920566 -3.00789e+06 -0)
(903320 -2.97837e+06 -0)
(886464 -2.94921e+06 -0)
(869988 -2.92041e+06 -0)
(853880 -2.89197e+06 -0)
(838133 -2.86387e+06 -0)
(822735 -2.83612e+06 -0)
(807679 -2.80872e+06 -0)
(792954 -2.78165e+06 -0)
(778552 -2.75491e+06 -0)
(764465 -2.72851e+06 -0)
(750685 -2.70243e+06 -0)
(737202 -2.67668e+06 -0)
(724011 -2.65124e+06 -0)
(711102 -2.62612e+06 -0)
(698469 -2.60132e+06 -0)
(686105 -2.57682e+06 -0)
(674002 -2.55262e+06 -0)
(662154 -2.52872e+06 -0)
(650555 -2.50512e+06 -0)
(639197 -2.48182e+06 -0)
(628076 -2.45881e+06 -0)
(617184 -2.43608e+06 -0)
(606515 -2.41363e+06 -0)
(596065 -2.39147e+06 -0)
(585828 -2.36958e+06 -0)
(575798 -2.34797e+06 -0)
(565970 -2.32662e+06 -0)
(556339 -2.30555e+06 -0)
(546900 -2.28474e+06 -0)
(537648 -2.26419e+06 -0)
(528579 -2.24389e+06 -0)
(519687 -2.22386e+06 -0)
(510969 -2.20407e+06 -0)
(502420 -2.18454e+06 -0)
(494035 -2.16525e+06 -0)
(485812 -2.1462e+06 -0)
(477745 -2.1274e+06 -0)
(469832 -2.10883e+06 -0)
(462067 -2.0905e+06 -0)
(454448 -2.0724e+06 -0)
(446971 -2.05453e+06 -0)
(439632 -2.03689e+06 -0)
(432428 -2.01947e+06 -0)
(425356 -2.00228e+06 -0)
(418412 -1.98531e+06 -0)
(411594 -1.96855e+06 -0)
(404898 -1.95201e+06 -0)
(398321 -1.93568e+06 -0)
(391861 -1.91956e+06 -0)
(385515 -1.90365e+06 -0)
(379280 -1.88795e+06 -0)
(373153 -1.87245e+06 -0)
(367133 -1.85715e+06 -0)
(361215 -1.84205e+06 -0)
(355399 -1.82715e+06 -0)
(349681 -1.81244e+06 -0)
(344060 -1.79793e+06 -0)
(338534 -1.7836e+06 -0)
(333099 -1.76947e+06 -0)
(327756 -1.75552e+06 -0)
(322500 -1.74176e+06 -0)
(317329 -1.72819e+06 -0)
(312242 -1.7148e+06 -0)
(307235 -1.70159e+06 -0)
(302308 -1.68856e+06 -0)
(297466 -1.67571e+06 -0)
(292714 -1.66304e+06 -0)
(288042 -1.65057e+06 -0)
(283393 -1.63831e+06 -0)
(278789 -1.62609e+06 -0)
(274093 -1.61368e+06 -0)
(1.6567e+06 -3.96501e+06 -0)
(1.62244e+06 -3.92428e+06 -0)
(1.58877e+06 -3.88413e+06 -0)
(1.55603e+06 -3.84446e+06 -0)
(1.52411e+06 -3.80525e+06 -0)
(1.49296e+06 -3.76649e+06 -0)
(1.46258e+06 -3.72817e+06 -0)
(1.43293e+06 -3.69029e+06 -0)
(1.40401e+06 -3.65286e+06 -0)
(1.37579e+06 -3.61586e+06 -0)
(1.34825e+06 -3.57929e+06 -0)
(1.32137e+06 -3.54315e+06 -0)
(1.29514e+06 -3.50743e+06 -0)
(1.26953e+06 -3.47214e+06 -0)
(1.24453e+06 -3.43725e+06 -0)
(1.22013e+06 -3.40279e+06 -0)
(1.1963e+06 -3.36872e+06 -0)
(1.17303e+06 -3.33507e+06 -0)
(1.15031e+06 -3.30181e+06 -0)
(1.12812e+06 -3.26895e+06 -0)
(1.10645e+06 -3.23648e+06 -0)
(1.08528e+06 -3.20439e+06 -0)
(1.0646e+06 -3.17269e+06 -0)
(1.04439e+06 -3.14138e+06 -0)
(1.02465e+06 -3.11043e+06 -0)
(1.00536e+06 -3.07986e+06 -0)
(986507 -3.04966e+06 -0)
(968081 -3.01982e+06 -0)
(950071 -2.99034e+06 -0)
(932465 -2.96121e+06 -0)
(915254 -2.93244e+06 -0)
(898426 -2.90402e+06 -0)
(881971 -2.87594e+06 -0)
(865880 -2.8482e+06 -0)
(850143 -2.8208e+06 -0)
(834750 -2.79373e+06 -0)
(819694 -2.76699e+06 -0)
(804964 -2.74058e+06 -0)
(790552 -2.71449e+06 -0)
(776451 -2.68871e+06 -0)
(762652 -2.66326e+06 -0)
(749147 -2.63811e+06 -0)
(735928 -2.61327e+06 -0)
(722989 -2.58874e+06 -0)
(710323 -2.5645e+06 -0)
(697921 -2.54057e+06 -0)
(685777 -2.51692e+06 -0)
(673886 -2.49357e+06 -0)
(662239 -2.47051e+06 -0)
(650832 -2.44773e+06 -0)
(639658 -2.42523e+06 -0)
(628711 -2.40301e+06 -0)
(617985 -2.38106e+06 -0)
(607475 -2.35938e+06 -0)
(597176 -2.33798e+06 -0)
(587081 -2.31683e+06 -0)
(577187 -2.29595e+06 -0)
(567488 -2.27533e+06 -0)
(557978 -2.25497e+06 -0)
(548654 -2.23486e+06 -0)
(539511 -2.215e+06 -0)
(530545 -2.19539e+06 -0)
(521750 -2.17602e+06 -0)
(513123 -2.15689e+06 -0)
(504659 -2.13801e+06 -0)
(496355 -2.11936e+06 -0)
(488206 -2.10094e+06 -0)
(480209 -2.08276e+06 -0)
(472360 -2.06481e+06 -0)
(464656 -2.04708e+06 -0)
(457092 -2.02958e+06 -0)
(449667 -2.0123e+06 -0)
(442375 -1.99523e+06 -0)
(435214 -1.97839e+06 -0)
(428181 -1.96176e+06 -0)
(421272 -1.94534e+06 -0)
(414486 -1.92913e+06 -0)
(407818 -1.91313e+06 -0)
(401266 -1.89733e+06 -0)
(394828 -1.88174e+06 -0)
(388500 -1.86635e+06 -0)
(382280 -1.85115e+06 -0)
(376166 -1.83616e+06 -0)
(370155 -1.82135e+06 -0)
(364244 -1.80675e+06 -0)
(358432 -1.79233e+06 -0)
(352716 -1.7781e+06 -0)
(347094 -1.76406e+06 -0)
(341564 -1.7502e+06 -0)
(336124 -1.73653e+06 -0)
(330770 -1.72304e+06 -0)
(325501 -1.70973e+06 -0)
(320314 -1.6966e+06 -0)
(315206 -1.68365e+06 -0)
(310178 -1.67087e+06 -0)
(305233 -1.65828e+06 -0)
(300375 -1.64588e+06 -0)
(295598 -1.63365e+06 -0)
(290923 -1.62154e+06 -0)
(285989 -1.60948e+06 -0)
(1.69706e+06 -3.93e+06 -0)
(1.66242e+06 -3.89031e+06 -0)
(1.62828e+06 -3.85101e+06 -0)
(1.59507e+06 -3.81216e+06 -0)
(1.5627e+06 -3.77374e+06 -0)
(1.53112e+06 -3.73575e+06 -0)
(1.5003e+06 -3.69819e+06 -0)
(1.47023e+06 -3.66105e+06 -0)
(1.44088e+06 -3.62432e+06 -0)
(1.41223e+06 -3.58802e+06 -0)
(1.38427e+06 -3.55212e+06 -0)
(1.35698e+06 -3.51664e+06 -0)
(1.33033e+06 -3.48156e+06 -0)
(1.30431e+06 -3.44688e+06 -0)
(1.27891e+06 -3.41261e+06 -0)
(1.25411e+06 -3.37872e+06 -0)
(1.22988e+06 -3.34523e+06 -0)
(1.20622e+06 -3.31213e+06 -0)
(1.18311e+06 -3.27942e+06 -0)
(1.16053e+06 -3.24708e+06 -0)
(1.13848e+06 -3.21512e+06 -0)
(1.11693e+06 -3.18354e+06 -0)
(1.09587e+06 -3.15232e+06 -0)
(1.07529e+06 -3.12147e+06 -0)
(1.05518e+06 -3.09099e+06 -0)
(1.03553e+06 -3.06087e+06 -0)
(1.01631e+06 -3.0311e+06 -0)
(997533 -3.00168e+06 -0)
(979170 -2.97261e+06 -0)
(961216 -2.94389e+06 -0)
(943660 -2.91551e+06 -0)
(926490 -2.88747e+06 -0)
(909698 -2.85976e+06 -0)
(893273 -2.83238e+06 -0)
(877205 -2.80533e+06 -0)
(861486 -2.7786e+06 -0)
(846106 -2.7522e+06 -0)
(831056 -2.72611e+06 -0)
(816329 -2.70034e+06 -0)
(801915 -2.67487e+06 -0)
(787807 -2.64971e+06 -0)
(773996 -2.62486e+06 -0)
(760475 -2.60031e+06 -0)
(747237 -2.57605e+06 -0)
(734275 -2.55208e+06 -0)
(721581 -2.52841e+06 -0)
(709148 -2.50503e+06 -0)
(696971 -2.48192e+06 -0)
(685042 -2.4591e+06 -0)
(673355 -2.43656e+06 -0)
(661905 -2.41429e+06 -0)
(650684 -2.3923e+06 -0)
(639689 -2.37057e+06 -0)
(628912 -2.34911e+06 -0)
(618348 -2.32791e+06 -0)
(607992 -2.30697e+06 -0)
(597840 -2.28629e+06 -0)
(587885 -2.26587e+06 -0)
(578123 -2.24569e+06 -0)
(568550 -2.22576e+06 -0)
(559160 -2.20608e+06 -0)
(549949 -2.18665e+06 -0)
(540912 -2.16745e+06 -0)
(532046 -2.14849e+06 -0)
(523346 -2.12977e+06 -0)
(514808 -2.11128e+06 -0)
(506429 -2.09302e+06 -0)
(498203 -2.07499e+06 -0)
(490129 -2.05718e+06 -0)
(482201 -2.0396e+06 -0)
(474416 -2.02223e+06 -0)
(466771 -2.00509e+06 -0)
(459263 -1.98816e+06 -0)
(451888 -1.97145e+06 -0)
(444643 -1.95494e+06 -0)
(437526 -1.93865e+06 -0)
(430532 -1.92256e+06 -0)
(423659 -1.90668e+06 -0)
(416904 -1.891e+06 -0)
(410265 -1.87552e+06 -0)
(403739 -1.86023e+06 -0)
(397322 -1.84515e+06 -0)
(391014 -1.83026e+06 -0)
(384810 -1.81556e+06 -0)
(378709 -1.80105e+06 -0)
(372708 -1.78673e+06 -0)
(366805 -1.77259e+06 -0)
(360997 -1.75865e+06 -0)
(355284 -1.74488e+06 -0)
(349661 -1.7313e+06 -0)
(344127 -1.71789e+06 -0)
(338680 -1.70467e+06 -0)
(333317 -1.69162e+06 -0)
(328035 -1.67874e+06 -0)
(322833 -1.66604e+06 -0)
(317709 -1.6535e+06 -0)
(312669 -1.64114e+06 -0)
(307731 -1.62896e+06 -0)
(302967 -1.61694e+06 -0)
(297816 -1.60501e+06 -0)
(1.73658e+06 -3.89449e+06 -0)
(1.70142e+06 -3.85575e+06 -0)
(1.66693e+06 -3.81734e+06 -0)
(1.63331e+06 -3.77931e+06 -0)
(1.60051e+06 -3.74169e+06 -0)
(1.56851e+06 -3.70448e+06 -0)
(1.53728e+06 -3.66767e+06 -0)
(1.5068e+06 -3.63127e+06 -0)
(1.47704e+06 -3.59526e+06 -0)
(1.44799e+06 -3.55965e+06 -0)
(1.41963e+06 -3.52444e+06 -0)
(1.39194e+06 -3.48961e+06 -0)
(1.36489e+06 -3.45517e+06 -0)
(1.33848e+06 -3.42112e+06 -0)
(1.31269e+06 -3.38745e+06 -0)
(1.2875e+06 -3.35416e+06 -0)
(1.26289e+06 -3.32124e+06 -0)
(1.23885e+06 -3.2887e+06 -0)
(1.21537e+06 -3.25653e+06 -0)
(1.19242e+06 -3.22472e+06 -0)
(1.16999e+06 -3.19328e+06 -0)
(1.14808e+06 -3.1622e+06 -0)
(1.12666e+06 -3.13147e+06 -0)
(1.10572e+06 -3.1011e+06 -0)
(1.08526e+06 -3.07108e+06 -0)
(1.06525e+06 -3.0414e+06 -0)
(1.04569e+06 -3.01207e+06 -0)
(1.02657e+06 -2.98308e+06 -0)
(1.00786e+06 -2.95443e+06 -0)
(989569 -2.92611e+06 -0)
(971678 -2.89813e+06 -0)
(954177 -2.87047e+06 -0)
(937057 -2.84313e+06 -0)
(920307 -2.81612e+06 -0)
(903919 -2.78942e+06 -0)
(887882 -2.76304e+06 -0)
(872188 -2.73698e+06 -0)
(856827 -2.71121e+06 -0)
(841792 -2.68576e+06 -0)
(827073 -2.66061e+06 -0)
(812664 -2.63575e+06 -0)
(798555 -2.61119e+06 -0)
(784740 -2.58693e+06 -0)
(771210 -2.56295e+06 -0)
(757959 -2.53926e+06 -0)
(744979 -2.51585e+06 -0)
(732264 -2.49273e+06 -0)
(719808 -2.46988e+06 -0)
(707602 -2.44731e+06 -0)
(695642 -2.425e+06 -0)
(683921 -2.40297e+06 -0)
(672434 -2.3812e+06 -0)
(661173 -2.3597e+06 -0)
(650135 -2.33846e+06 -0)
(639312 -2.31747e+06 -0)
(628701 -2.29674e+06 -0)
(618295 -2.27626e+06 -0)
(608090 -2.25603e+06 -0)
(598080 -2.23605e+06 -0)
(588261 -2.21631e+06 -0)
(578629 -2.19681e+06 -0)
(569178 -2.17755e+06 -0)
(559905 -2.15853e+06 -0)
(550804 -2.13974e+06 -0)
(541872 -2.12118e+06 -0)
(533104 -2.10285e+06 -0)
(524497 -2.08475e+06 -0)
(516047 -2.06687e+06 -0)
(507750 -2.04922e+06 -0)
(499602 -2.03178e+06 -0)
(491600 -2.01456e+06 -0)
(483740 -1.99755e+06 -0)
(476018 -1.98076e+06 -0)
(468433 -1.96418e+06 -0)
(460979 -1.9478e+06 -0)
(453655 -1.93164e+06 -0)
(446457 -1.91567e+06 -0)
(439382 -1.89991e+06 -0)
(432427 -1.88435e+06 -0)
(425590 -1.86898e+06 -0)
(418868 -1.85381e+06 -0)
(412257 -1.83883e+06 -0)
(405757 -1.82405e+06 -0)
(399363 -1.80945e+06 -0)
(393073 -1.79505e+06 -0)
(386886 -1.78083e+06 -0)
(380798 -1.76679e+06 -0)
(374808 -1.75294e+06 -0)
(368913 -1.73926e+06 -0)
(363110 -1.72577e+06 -0)
(357398 -1.71246e+06 -0)
(351775 -1.69932e+06 -0)
(346240 -1.68635e+06 -0)
(340789 -1.67356e+06 -0)
(335421 -1.66093e+06 -0)
(330131 -1.64846e+06 -0)
(324916 -1.63616e+06 -0)
(319793 -1.62403e+06 -0)
(314868 -1.61209e+06 -0)
(309657 -1.60034e+06 -0)
(1.77525e+06 -3.85868e+06 -0)
(1.73957e+06 -3.82074e+06 -0)
(1.70471e+06 -3.78318e+06 -0)
(1.67072e+06 -3.74599e+06 -0)
(1.63753e+06 -3.70918e+06 -0)
(1.60514e+06 -3.67274e+06 -0)
(1.57351e+06 -3.6367e+06 -0)
(1.54264e+06 -3.60103e+06 -0)
(1.5125e+06 -3.56574e+06 -0)
(1.48306e+06 -3.53083e+06 -0)
(1.45431e+06 -3.4963e+06 -0)
(1.42624e+06 -3.46213e+06 -0)
(1.39882e+06 -3.42834e+06 -0)
(1.37204e+06 -3.39491e+06 -0)
(1.34587e+06 -3.36185e+06 -0)
(1.32031e+06 -3.32916e+06 -0)
(1.29534e+06 -3.29682e+06 -0)
(1.27094e+06 -3.26484e+06 -0)
(1.24709e+06 -3.23321e+06 -0)
(1.22378e+06 -3.20194e+06 -0)
(1.201e+06 -3.17101e+06 -0)
(1.17873e+06 -3.14043e+06 -0)
(1.15697e+06 -3.1102e+06 -0)
(1.13569e+06 -3.08031e+06 -0)
(1.11488e+06 -3.05075e+06 -0)
(1.09453e+06 -3.02153e+06 -0)
(1.07463e+06 -2.99264e+06 -0)
(1.05517e+06 -2.96408e+06 -0)
(1.03614e+06 -2.93585e+06 -0)
(1.01752e+06 -2.90794e+06 -0)
(999305 -2.88035e+06 -0)
(981484 -2.85308e+06 -0)
(964046 -2.82612e+06 -0)
(946981 -2.79947e+06 -0)
(930281 -2.77314e+06 -0)
(913935 -2.74711e+06 -0)
(897935 -2.72138e+06 -0)
(882272 -2.69595e+06 -0)
(866938 -2.67081e+06 -0)
(851923 -2.64597e+06 -0)
(837220 -2.62143e+06 -0)
(822821 -2.59717e+06 -0)
(808718 -2.57319e+06 -0)
(794904 -2.5495e+06 -0)
(781371 -2.52609e+06 -0)
(768113 -2.50295e+06 -0)
(755122 -2.48009e+06 -0)
(742393 -2.45749e+06 -0)
(729917 -2.43517e+06 -0)
(717690 -2.41311e+06 -0)
(705705 -2.39132e+06 -0)
(693955 -2.36978e+06 -0)
(682436 -2.3485e+06 -0)
(671141 -2.32748e+06 -0)
(660066 -2.30671e+06 -0)
(649203 -2.28619e+06 -0)
(638549 -2.26591e+06 -0)
(628098 -2.24588e+06 -0)
(617846 -2.22609e+06 -0)
(607787 -2.20654e+06 -0)
(597917 -2.18723e+06 -0)
(588230 -2.16815e+06 -0)
(578724 -2.1493e+06 -0)
(569393 -2.13069e+06 -0)
(560233 -2.1123e+06 -0)
(551239 -2.09413e+06 -0)
(542409 -2.07619e+06 -0)
(533738 -2.05847e+06 -0)
(525222 -2.04096e+06 -0)
(516858 -2.02368e+06 -0)
(508641 -2.0066e+06 -0)
(500569 -1.98974e+06 -0)
(492638 -1.97308e+06 -0)
(484845 -1.95664e+06 -0)
(477186 -1.94039e+06 -0)
(469658 -1.92435e+06 -0)
(462259 -1.90851e+06 -0)
(454985 -1.89287e+06 -0)
(447833 -1.87743e+06 -0)
(440800 -1.86218e+06 -0)
(433885 -1.84713e+06 -0)
(427083 -1.83226e+06 -0)
(420393 -1.81759e+06 -0)
(413811 -1.8031e+06 -0)
(407336 -1.7888e+06 -0)
(400965 -1.77468e+06 -0)
(394695 -1.76074e+06 -0)
(388524 -1.74698e+06 -0)
(382449 -1.73341e+06 -0)
(376469 -1.72e+06 -0)
(370582 -1.70678e+06 -0)
(364785 -1.69373e+06 -0)
(359078 -1.68085e+06 -0)
(353460 -1.66814e+06 -0)
(347928 -1.6556e+06 -0)
(342479 -1.64322e+06 -0)
(337103 -1.631e+06 -0)
(331798 -1.61893e+06 -0)
(326650 -1.60704e+06 -0)
(321403 -1.5954e+06 -0)
(1.81299e+06 -3.82254e+06 -0)
(1.77693e+06 -3.7854e+06 -0)
(1.74168e+06 -3.74866e+06 -0)
(1.70731e+06 -3.71229e+06 -0)
(1.67376e+06 -3.67628e+06 -0)
(1.64099e+06 -3.64063e+06 -0)
(1.609e+06 -3.60534e+06 -0)
(1.57775e+06 -3.57042e+06 -0)
(1.54724e+06 -3.53585e+06 -0)
(1.51744e+06 -3.50164e+06 -0)
(1.48833e+06 -3.46779e+06 -0)
(1.45989e+06 -3.43429e+06 -0)
(1.43211e+06 -3.40114e+06 -0)
(1.40497e+06 -3.36835e+06 -0)
(1.37845e+06 -3.3359e+06 -0)
(1.35254e+06 -3.3038e+06 -0)
(1.32721e+06 -3.27204e+06 -0)
(1.30246e+06 -3.24062e+06 -0)
(1.27827e+06 -3.20955e+06 -0)
(1.25462e+06 -3.17881e+06 -0)
(1.2315e+06 -3.1484e+06 -0)
(1.20889e+06 -3.11833e+06 -0)
(1.18679e+06 -3.08859e+06 -0)
(1.16517e+06 -3.05918e+06 -0)
(1.14404e+06 -3.03009e+06 -0)
(1.12336e+06 -3.00133e+06 -0)
(1.10314e+06 -2.97289e+06 -0)
(1.08336e+06 -2.94476e+06 -0)
(1.064e+06 -2.91695e+06 -0)
(1.04507e+06 -2.88945e+06 -0)
(1.02654e+06 -2.86226e+06 -0)
(1.00841e+06 -2.83538e+06 -0)
(990660 -2.8088e+06 -0)
(973291 -2.78253e+06 -0)
(956288 -2.75655e+06 -0)
(939643 -2.73087e+06 -0)
(923346 -2.70548e+06 -0)
(907390 -2.68039e+06 -0)
(891764 -2.65558e+06 -0)
(876461 -2.63106e+06 -0)
(861472 -2.60682e+06 -0)
(846790 -2.58286e+06 -0)
(832407 -2.55918e+06 -0)
(818316 -2.53577e+06 -0)
(804509 -2.51264e+06 -0)
(790979 -2.48978e+06 -0)
(777719 -2.46718e+06 -0)
(764723 -2.44485e+06 -0)
(751984 -2.42277e+06 -0)
(739496 -2.40096e+06 -0)
(727252 -2.37941e+06 -0)
(715247 -2.35811e+06 -0)
(703475 -2.33706e+06 -0)
(691929 -2.31626e+06 -0)
(680605 -2.2957e+06 -0)
(669498 -2.27539e+06 -0)
(658600 -2.25532e+06 -0)
(647909 -2.2355e+06 -0)
(637418 -2.2159e+06 -0)
(627124 -2.19655e+06 -0)
(617020 -2.17742e+06 -0)
(607103 -2.15853e+06 -0)
(597368 -2.13986e+06 -0)
(587810 -2.12142e+06 -0)
(578426 -2.1032e+06 -0)
(569212 -2.0852e+06 -0)
(560162 -2.06742e+06 -0)
(551274 -2.04985e+06 -0)
(542543 -2.0325e+06 -0)
(533965 -2.01536e+06 -0)
(525538 -1.99844e+06 -0)
(517258 -1.98172e+06 -0)
(509120 -1.9652e+06 -0)
(501123 -1.94889e+06 -0)
(493262 -1.93278e+06 -0)
(485534 -1.91687e+06 -0)
(477936 -1.90116e+06 -0)
(470465 -1.88565e+06 -0)
(463119 -1.87033e+06 -0)
(455894 -1.8552e+06 -0)
(448788 -1.84026e+06 -0)
(441797 -1.82551e+06 -0)
(434920 -1.81094e+06 -0)
(428154 -1.79656e+06 -0)
(421495 -1.78237e+06 -0)
(414942 -1.76835e+06 -0)
(408492 -1.75451e+06 -0)
(402143 -1.74086e+06 -0)
(395892 -1.72737e+06 -0)
(389737 -1.71407e+06 -0)
(383675 -1.70093e+06 -0)
(377706 -1.68797e+06 -0)
(371827 -1.67518e+06 -0)
(366040 -1.66256e+06 -0)
(360343 -1.6501e+06 -0)
(354733 -1.63781e+06 -0)
(349205 -1.62569e+06 -0)
(343747 -1.61371e+06 -0)
(338402 -1.60188e+06 -0)
(332993 -1.59025e+06 -0)
(1.8498e+06 -3.78596e+06 -0)
(1.81346e+06 -3.74969e+06 -0)
(1.77783e+06 -3.71378e+06 -0)
(1.7431e+06 -3.67823e+06 -0)
(1.70919e+06 -3.64302e+06 -0)
(1.67607e+06 -3.60816e+06 -0)
(1.64373e+06 -3.57364e+06 -0)
(1.61213e+06 -3.53945e+06 -0)
(1.58127e+06 -3.50561e+06 -0)
(1.55112e+06 -3.47211e+06 -0)
(1.52167e+06 -3.43894e+06 -0)
(1.49289e+06 -3.40611e+06 -0)
(1.46476e+06 -3.37361e+06 -0)
(1.43728e+06 -3.34144e+06 -0)
(1.41042e+06 -3.30961e+06 -0)
(1.38417e+06 -3.2781e+06 -0)
(1.35851e+06 -3.24693e+06 -0)
(1.33343e+06 -3.21608e+06 -0)
(1.3089e+06 -3.18556e+06 -0)
(1.28492e+06 -3.15536e+06 -0)
(1.26148e+06 -3.12548e+06 -0)
(1.23855e+06 -3.09592e+06 -0)
(1.21612e+06 -3.06667e+06 -0)
(1.19419e+06 -3.03774e+06 -0)
(1.17273e+06 -3.00913e+06 -0)
(1.15174e+06 -2.98082e+06 -0)
(1.1312e+06 -2.95283e+06 -0)
(1.11111e+06 -2.92514e+06 -0)
(1.09145e+06 -2.89775e+06 -0)
(1.07221e+06 -2.87066e+06 -0)
(1.05338e+06 -2.84388e+06 -0)
(1.03494e+06 -2.81739e+06 -0)
(1.0169e+06 -2.79119e+06 -0)
(999233 -2.76529e+06 -0)
(981938 -2.73968e+06 -0)
(965002 -2.71435e+06 -0)
(948418 -2.68931e+06 -0)
(932175 -2.66455e+06 -0)
(916267 -2.64007e+06 -0)
(900684 -2.61587e+06 -0)
(885417 -2.59194e+06 -0)
(870461 -2.56829e+06 -0)
(855805 -2.54491e+06 -0)
(841444 -2.52179e+06 -0)
(827369 -2.49894e+06 -0)
(813575 -2.47635e+06 -0)
(800053 -2.45402e+06 -0)
(786797 -2.43195e+06 -0)
(773800 -2.41013e+06 -0)
(761057 -2.38857e+06 -0)
(748561 -2.36725e+06 -0)
(736306 -2.34619e+06 -0)
(724286 -2.32537e+06 -0)
(712496 -2.3048e+06 -0)
(700929 -2.28446e+06 -0)
(689581 -2.26437e+06 -0)
(678446 -2.24451e+06 -0)
(667519 -2.22488e+06 -0)
(656795 -2.20549e+06 -0)
(646269 -2.18633e+06 -0)
(635937 -2.16739e+06 -0)
(625794 -2.14868e+06 -0)
(615834 -2.1302e+06 -0)
(606055 -2.11193e+06 -0)
(596451 -2.09388e+06 -0)
(587019 -2.07605e+06 -0)
(577753 -2.05844e+06 -0)
(568652 -2.04103e+06 -0)
(559710 -2.02384e+06 -0)
(550923 -2.00686e+06 -0)
(542289 -1.99008e+06 -0)
(533803 -1.9735e+06 -0)
(525463 -1.95713e+06 -0)
(517264 -1.94096e+06 -0)
(509204 -1.92499e+06 -0)
(501279 -1.90921e+06 -0)
(493486 -1.89363e+06 -0)
(485822 -1.87824e+06 -0)
(478284 -1.86304e+06 -0)
(470869 -1.84803e+06 -0)
(463575 -1.83321e+06 -0)
(456399 -1.81858e+06 -0)
(449337 -1.80412e+06 -0)
(442388 -1.78985e+06 -0)
(435549 -1.77576e+06 -0)
(428816 -1.76185e+06 -0)
(422189 -1.74812e+06 -0)
(415664 -1.73456e+06 -0)
(409238 -1.72118e+06 -0)
(402911 -1.70797e+06 -0)
(396678 -1.69493e+06 -0)
(390539 -1.68205e+06 -0)
(384492 -1.66935e+06 -0)
(378536 -1.65681e+06 -0)
(372670 -1.64444e+06 -0)
(366893 -1.63224e+06 -0)
(361205 -1.6202e+06 -0)
(355604 -1.60833e+06 -0)
(350116 -1.5966e+06 -0)
(344478 -1.585e+06 -0)
(1.88574e+06 -3.74894e+06 -0)
(1.8491e+06 -3.7136e+06 -0)
(1.81315e+06 -3.67855e+06 -0)
(1.77807e+06 -3.64383e+06 -0)
(1.74383e+06 -3.60942e+06 -0)
(1.71038e+06 -3.57534e+06 -0)
(1.6777e+06 -3.54159e+06 -0)
(1.64578e+06 -3.50815e+06 -0)
(1.61459e+06 -3.47503e+06 -0)
(1.58411e+06 -3.44223e+06 -0)
(1.55433e+06 -3.40975e+06 -0)
(1.52522e+06 -3.37758e+06 -0)
(1.49677e+06 -3.34573e+06 -0)
(1.46897e+06 -3.3142e+06 -0)
(1.44179e+06 -3.28298e+06 -0)
(1.41522e+06 -3.25208e+06 -0)
(1.38924e+06 -3.22149e+06 -0)
(1.36383e+06 -3.19121e+06 -0)
(1.33899e+06 -3.16124e+06 -0)
(1.3147e+06 -3.13158e+06 -0)
(1.29094e+06 -3.10222e+06 -0)
(1.2677e+06 -3.07317e+06 -0)
(1.24496e+06 -3.04443e+06 -0)
(1.22272e+06 -3.01599e+06 -0)
(1.20096e+06 -2.98784e+06 -0)
(1.17966e+06 -2.96e+06 -0)
(1.15883e+06 -2.93245e+06 -0)
(1.13843e+06 -2.9052e+06 -0)
(1.11848e+06 -2.87824e+06 -0)
(1.09894e+06 -2.85157e+06 -0)
(1.07981e+06 -2.82519e+06 -0)
(1.06109e+06 -2.7991e+06 -0)
(1.04276e+06 -2.77329e+06 -0)
(1.02481e+06 -2.74776e+06 -0)
(1.00723e+06 -2.72251e+06 -0)
(990010 -2.69754e+06 -0)
(973147 -2.67285e+06 -0)
(956628 -2.64843e+06 -0)
(940445 -2.62428e+06 -0)
(924589 -2.6004e+06 -0)
(909053 -2.57679e+06 -0)
(893829 -2.55344e+06 -0)
(878909 -2.53036e+06 -0)
(864285 -2.50753e+06 -0)
(849950 -2.48496e+06 -0)
(835897 -2.46265e+06 -0)
(822120 -2.44059e+06 -0)
(808611 -2.41879e+06 -0)
(795363 -2.39723e+06 -0)
(782372 -2.37591e+06 -0)
(769629 -2.35485e+06 -0)
(757130 -2.33402e+06 -0)
(744868 -2.31344e+06 -0)
(732838 -2.29309e+06 -0)
(721034 -2.27298e+06 -0)
(709451 -2.2531e+06 -0)
(698083 -2.23345e+06 -0)
(686926 -2.21404e+06 -0)
(675974 -2.19484e+06 -0)
(665222 -2.17588e+06 -0)
(654665 -2.15714e+06 -0)
(644300 -2.13861e+06 -0)
(634121 -2.12031e+06 -0)
(624124 -2.10222e+06 -0)
(614304 -2.08435e+06 -0)
(604658 -2.06669e+06 -0)
(595182 -2.04924e+06 -0)
(585870 -2.032e+06 -0)
(576721 -2.01496e+06 -0)
(567729 -1.99813e+06 -0)
(558891 -1.98151e+06 -0)
(550204 -1.96508e+06 -0)
(541664 -1.94885e+06 -0)
(533267 -1.93282e+06 -0)
(525011 -1.91699e+06 -0)
(516892 -1.90135e+06 -0)
(508907 -1.88589e+06 -0)
(501052 -1.87063e+06 -0)
(493326 -1.85556e+06 -0)
(485724 -1.84068e+06 -0)
(478245 -1.82597e+06 -0)
(470885 -1.81145e+06 -0)
(463642 -1.79712e+06 -0)
(456513 -1.78296e+06 -0)
(449495 -1.76898e+06 -0)
(442586 -1.75517e+06 -0)
(435784 -1.74155e+06 -0)
(429085 -1.72809e+06 -0)
(422487 -1.7148e+06 -0)
(415989 -1.70169e+06 -0)
(409588 -1.68874e+06 -0)
(403282 -1.67596e+06 -0)
(397068 -1.66335e+06 -0)
(390947 -1.6509e+06 -0)
(384915 -1.63862e+06 -0)
(378971 -1.62649e+06 -0)
(373115 -1.61454e+06 -0)
(367354 -1.60275e+06 -0)
(361732 -1.59112e+06 -0)
(355929 -1.57964e+06 -0)
(1.92083e+06 -3.7116e+06 -0)
(1.88385e+06 -3.67715e+06 -0)
(1.8476e+06 -3.64297e+06 -0)
(1.81223e+06 -3.60908e+06 -0)
(1.77767e+06 -3.57549e+06 -0)
(1.74391e+06 -3.54219e+06 -0)
(1.71092e+06 -3.5092e+06 -0)
(1.67869e+06 -3.47651e+06 -0)
(1.64719e+06 -3.44411e+06 -0)
(1.6164e+06 -3.41202e+06 -0)
(1.58631e+06 -3.38022e+06 -0)
(1.5569e+06 -3.34872e+06 -0)
(1.52814e+06 -3.31753e+06 -0)
(1.50003e+06 -3.28663e+06 -0)
(1.47255e+06 -3.25602e+06 -0)
(1.44567e+06 -3.22572e+06 -0)
(1.41938e+06 -3.19572e+06 -0)
(1.39368e+06 -3.16601e+06 -0)
(1.36853e+06 -3.13659e+06 -0)
(1.34394e+06 -3.10747e+06 -0)
(1.31988e+06 -3.07864e+06 -0)
(1.29634e+06 -3.05011e+06 -0)
(1.27331e+06 -3.02187e+06 -0)
(1.25077e+06 -2.99391e+06 -0)
(1.22872e+06 -2.96624e+06 -0)
(1.20713e+06 -2.93886e+06 -0)
(1.186e+06 -2.91177e+06 -0)
(1.16532e+06 -2.88495e+06 -0)
(1.14508e+06 -2.85842e+06 -0)
(1.12526e+06 -2.83217e+06 -0)
(1.10585e+06 -2.8062e+06 -0)
(1.08685e+06 -2.7805e+06 -0)
(1.06824e+06 -2.75508e+06 -0)
(1.05001e+06 -2.72993e+06 -0)
(1.03215e+06 -2.70505e+06 -0)
(1.01466e+06 -2.68044e+06 -0)
(997531 -2.6561e+06 -0)
(980744 -2.63202e+06 -0)
(964295 -2.6082e+06 -0)
(948175 -2.58465e+06 -0)
(932378 -2.56135e+06 -0)
(916894 -2.53831e+06 -0)
(901716 -2.51553e+06 -0)
(886837 -2.493e+06 -0)
(872249 -2.47072e+06 -0)
(857945 -2.44868e+06 -0)
(843919 -2.4269e+06 -0)
(830163 -2.40536e+06 -0)
(816671 -2.38406e+06 -0)
(803437 -2.363e+06 -0)
(790454 -2.34218e+06 -0)
(777716 -2.3216e+06 -0)
(765219 -2.30125e+06 -0)
(752955 -2.28113e+06 -0)
(740919 -2.26124e+06 -0)
(729106 -2.24158e+06 -0)
(717511 -2.22215e+06 -0)
(706128 -2.20294e+06 -0)
(694952 -2.18395e+06 -0)
(683978 -2.16519e+06 -0)
(673203 -2.14664e+06 -0)
(662620 -2.12831e+06 -0)
(652225 -2.11019e+06 -0)
(642015 -2.09228e+06 -0)
(631984 -2.07458e+06 -0)
(622128 -2.0571e+06 -0)
(612444 -2.03982e+06 -0)
(602927 -2.02274e+06 -0)
(593574 -2.00586e+06 -0)
(584380 -1.98919e+06 -0)
(575343 -1.97272e+06 -0)
(566457 -1.95644e+06 -0)
(557721 -1.94036e+06 -0)
(549130 -1.92447e+06 -0)
(540681 -1.90878e+06 -0)
(532371 -1.89327e+06 -0)
(524197 -1.87795e+06 -0)
(516155 -1.86282e+06 -0)
(508243 -1.84788e+06 -0)
(500457 -1.83312e+06 -0)
(492796 -1.81854e+06 -0)
(485255 -1.80414e+06 -0)
(477833 -1.78991e+06 -0)
(470527 -1.77587e+06 -0)
(463333 -1.762e+06 -0)
(456250 -1.7483e+06 -0)
(449275 -1.73478e+06 -0)
(442405 -1.72143e+06 -0)
(435637 -1.70824e+06 -0)
(428971 -1.69523e+06 -0)
(422403 -1.68238e+06 -0)
(415932 -1.66969e+06 -0)
(409555 -1.65717e+06 -0)
(403270 -1.64481e+06 -0)
(397077 -1.63261e+06 -0)
(390972 -1.62058e+06 -0)
(384950 -1.60869e+06 -0)
(379017 -1.59698e+06 -0)
(373229 -1.58543e+06 -0)
(367340 -1.57406e+06 -0)
(1.95503e+06 -3.674e+06 -0)
(1.91773e+06 -3.6404e+06 -0)
(1.88121e+06 -3.60707e+06 -0)
(1.84556e+06 -3.57402e+06 -0)
(1.81071e+06 -3.54124e+06 -0)
(1.77667e+06 -3.50873e+06 -0)
(1.74339e+06 -3.4765e+06 -0)
(1.71087e+06 -3.44455e+06 -0)
(1.67908e+06 -3.41288e+06 -0)
(1.648e+06 -3.38148e+06 -0)
(1.61762e+06 -3.35037e+06 -0)
(1.58792e+06 -3.31955e+06 -0)
(1.55887e+06 -3.289e+06 -0)
(1.53047e+06 -3.25873e+06 -0)
(1.50269e+06 -3.22875e+06 -0)
(1.47553e+06 -3.19905e+06 -0)
(1.44895e+06 -3.16963e+06 -0)
(1.42296e+06 -3.14049e+06 -0)
(1.39753e+06 -3.11163e+06 -0)
(1.37264e+06 -3.08305e+06 -0)
(1.3483e+06 -3.05475e+06 -0)
(1.32447e+06 -3.02673e+06 -0)
(1.30116e+06 -2.99899e+06 -0)
(1.27834e+06 -2.97153e+06 -0)
(1.25601e+06 -2.94434e+06 -0)
(1.23414e+06 -2.91742e+06 -0)
(1.21274e+06 -2.89078e+06 -0)
(1.19178e+06 -2.86441e+06 -0)
(1.17126e+06 -2.83831e+06 -0)
(1.15116e+06 -2.81247e+06 -0)
(1.13148e+06 -2.78691e+06 -0)
(1.11221e+06 -2.76161e+06 -0)
(1.09333e+06 -2.73658e+06 -0)
(1.07484e+06 -2.71181e+06 -0)
(1.05672e+06 -2.6873e+06 -0)
(1.03896e+06 -2.66305e+06 -0)
(1.02157e+06 -2.63906e+06 -0)
(1.00452e+06 -2.61532e+06 -0)
(987815 -2.59184e+06 -0)
(971440 -2.56862e+06 -0)
(955388 -2.54564e+06 -0)
(939653 -2.52291e+06 -0)
(924225 -2.50043e+06 -0)
(909097 -2.47819e+06 -0)
(894263 -2.4562e+06 -0)
(879715 -2.43445e+06 -0)
(865447 -2.41294e+06 -0)
(851451 -2.39167e+06 -0)
(837720 -2.37063e+06 -0)
(824250 -2.34983e+06 -0)
(811033 -2.32926e+06 -0)
(798063 -2.30892e+06 -0)
(785335 -2.2888e+06 -0)
(772843 -2.26892e+06 -0)
(760581 -2.24926e+06 -0)
(748543 -2.22982e+06 -0)
(736726 -2.2106e+06 -0)
(725122 -2.1916e+06 -0)
(713728 -2.17282e+06 -0)
(702537 -2.15426e+06 -0)
(691547 -2.1359e+06 -0)
(680751 -2.11776e+06 -0)
(670146 -2.09983e+06 -0)
(659726 -2.08211e+06 -0)
(649488 -2.06459e+06 -0)
(639427 -2.04728e+06 -0)
(629540 -2.03017e+06 -0)
(619821 -2.01326e+06 -0)
(610268 -1.99654e+06 -0)
(600876 -1.98003e+06 -0)
(591642 -1.96371e+06 -0)
(582562 -1.94759e+06 -0)
(573633 -1.93165e+06 -0)
(564851 -1.91591e+06 -0)
(556212 -1.90035e+06 -0)
(547715 -1.88499e+06 -0)
(539354 -1.8698e+06 -0)
(531128 -1.85481e+06 -0)
(523033 -1.83999e+06 -0)
(515067 -1.82535e+06 -0)
(507225 -1.8109e+06 -0)
(499507 -1.79662e+06 -0)
(491909 -1.78251e+06 -0)
(484427 -1.76858e+06 -0)
(477061 -1.75482e+06 -0)
(469806 -1.74124e+06 -0)
(462660 -1.72782e+06 -0)
(455622 -1.71457e+06 -0)
(448687 -1.70149e+06 -0)
(441855 -1.68858e+06 -0)
(435123 -1.67582e+06 -0)
(428488 -1.66324e+06 -0)
(421949 -1.65081e+06 -0)
(415504 -1.63854e+06 -0)
(409151 -1.62643e+06 -0)
(402889 -1.61448e+06 -0)
(396712 -1.60268e+06 -0)
(390615 -1.59104e+06 -0)
(384645 -1.57955e+06 -0)
(378662 -1.56825e+06 -0)
(1.98832e+06 -3.63612e+06 -0)
(1.95077e+06 -3.60338e+06 -0)
(1.91398e+06 -3.57089e+06 -0)
(1.87806e+06 -3.53867e+06 -0)
(1.84296e+06 -3.50669e+06 -0)
(1.80865e+06 -3.47497e+06 -0)
(1.7751e+06 -3.4435e+06 -0)
(1.74231e+06 -3.41229e+06 -0)
(1.71025e+06 -3.38134e+06 -0)
(1.6789e+06 -3.35065e+06 -0)
(1.64825e+06 -3.32023e+06 -0)
(1.61828e+06 -3.29007e+06 -0)
(1.58896e+06 -3.26017e+06 -0)
(1.56028e+06 -3.23054e+06 -0)
(1.53223e+06 -3.20117e+06 -0)
(1.50479e+06 -3.17207e+06 -0)
(1.47794e+06 -3.14324e+06 -0)
(1.45167e+06 -3.11467e+06 -0)
(1.42597e+06 -3.08637e+06 -0)
(1.40081e+06 -3.05834e+06 -0)
(1.3762e+06 -3.03057e+06 -0)
(1.3521e+06 -3.00306e+06 -0)
(1.32852e+06 -2.97582e+06 -0)
(1.30543e+06 -2.94885e+06 -0)
(1.28282e+06 -2.92214e+06 -0)
(1.26069e+06 -2.89569e+06 -0)
(1.23902e+06 -2.8695e+06 -0)
(1.2178e+06 -2.84357e+06 -0)
(1.19701e+06 -2.8179e+06 -0)
(1.17665e+06 -2.79249e+06 -0)
(1.15671e+06 -2.76734e+06 -0)
(1.13718e+06 -2.74244e+06 -0)
(1.11804e+06 -2.7178e+06 -0)
(1.09929e+06 -2.69341e+06 -0)
(1.08091e+06 -2.66927e+06 -0)
(1.06291e+06 -2.64538e+06 -0)
(1.04526e+06 -2.62175e+06 -0)
(1.02796e+06 -2.59836e+06 -0)
(1.011e+06 -2.57521e+06 -0)
(994381 -2.55231e+06 -0)
(978083 -2.52966e+06 -0)
(962103 -2.50724e+06 -0)
(946433 -2.48506e+06 -0)
(931065 -2.46313e+06 -0)
(915992 -2.44142e+06 -0)
(901206 -2.41996e+06 -0)
(886702 -2.39872e+06 -0)
(872472 -2.37772e+06 -0)
(858510 -2.35695e+06 -0)
(844810 -2.3364e+06 -0)
(831365 -2.31608e+06 -0)
(818169 -2.29599e+06 -0)
(805216 -2.27612e+06 -0)
(792501 -2.25646e+06 -0)
(780018 -2.23703e+06 -0)
(767761 -2.21782e+06 -0)
(755726 -2.19882e+06 -0)
(743907 -2.18003e+06 -0)
(732299 -2.16146e+06 -0)
(720897 -2.14309e+06 -0)
(709696 -2.12494e+06 -0)
(698692 -2.10699e+06 -0)
(687880 -2.08925e+06 -0)
(677256 -2.07171e+06 -0)
(666815 -2.05437e+06 -0)
(656553 -2.03724e+06 -0)
(646466 -2.0203e+06 -0)
(636549 -2.00355e+06 -0)
(626800 -1.98701e+06 -0)
(617214 -1.97065e+06 -0)
(607787 -1.95449e+06 -0)
(598516 -1.93852e+06 -0)
(589397 -1.92274e+06 -0)
(580427 -1.90714e+06 -0)
(571603 -1.89173e+06 -0)
(562921 -1.8765e+06 -0)
(554378 -1.86145e+06 -0)
(545970 -1.84659e+06 -0)
(537695 -1.8319e+06 -0)
(529551 -1.81739e+06 -0)
(521533 -1.80306e+06 -0)
(513639 -1.7889e+06 -0)
(505867 -1.77492e+06 -0)
(498214 -1.7611e+06 -0)
(490676 -1.74746e+06 -0)
(483252 -1.73399e+06 -0)
(475939 -1.72068e+06 -0)
(468734 -1.70754e+06 -0)
(461635 -1.69456e+06 -0)
(454639 -1.68175e+06 -0)
(447745 -1.66909e+06 -0)
(440950 -1.6566e+06 -0)
(434251 -1.64427e+06 -0)
(427647 -1.63209e+06 -0)
(421137 -1.62007e+06 -0)
(414719 -1.60821e+06 -0)
(408391 -1.5965e+06 -0)
(402146 -1.58494e+06 -0)
(396014 -1.57352e+06 -0)
(389872 -1.56227e+06 -0)
(2.02071e+06 -3.59795e+06 -0)
(1.98295e+06 -3.56611e+06 -0)
(1.94593e+06 -3.53446e+06 -0)
(1.90976e+06 -3.50305e+06 -0)
(1.87441e+06 -3.47188e+06 -0)
(1.83986e+06 -3.44094e+06 -0)
(1.80607e+06 -3.41023e+06 -0)