/*--------------------------------*- C++ -*----------------------------------*\
  =========                 |
  \\      /  F ield         | OpenFOAM: The Open Source CFD Toolbox
   \\    /   O peration     | Website:  https://openfoam.org
    \\  /    A nd           | Version:  7
     \\/     M anipulation  |
\*---------------------------------------------------------------------------*/
FoamFile
{
    version     2.0;
    format      ascii;
    class       volScalarField;
    location    "0.01/solid";
    object      Tair;
}
// * * * * * * * * * * * * * * * * * * * * * * * * * * * * * * * * * * * * * //

dimensions      [0 0 0 1 0 0 0];

internalField   nonuniform List<scalar> 
3600
(
300.07
300.067
300.063
300.06
300.057
300.054
300.051
300.048
300.046
300.044
300.041
300.039
300.037
300.035
300.033
300.032
300.03
300.028
300.027
300.026
300.024
300.023
300.022
300.021
300.019
300.018
300.017
300.017
300.016
300.015
300.014
300.013
300.012
300.012
300.011
300.01
300.01
300.009
300.009
300.008
300.008
300.007
300.007
300.006
300.006
300.005
300.005
300.004
300.004
300.004
300.003
300.003
300.003
300.002
300.002
300.001
300.001
300.001
300
300
300.21
300.2
300.189
300.18
300.17
300.162
300.153
300.145
300.138
300.131
300.124
300.118
300.112
300.106
300.1
300.095
300.09
300.085
300.081
300.077
300.073
300.069
300.065
300.062
300.058
300.055
300.052
300.049
300.047
300.044
300.042
300.039
300.037
300.035
300.033
300.031
300.029
300.027
300.026
300.024
300.023
300.021
300.02
300.018
300.017
300.016
300.014
300.013
300.012
300.011
300.01
300.009
300.008
300.006
300.005
300.004
300.003
300.002
300.001
300
300.35
300.332
300.315
300.299
300.283
300.269
300.255
300.242
300.229
300.218
300.206
300.196
300.186
300.176
300.167
300.158
300.15
300.142
300.135
300.128
300.121
300.115
300.108
300.103
300.097
300.092
300.087
300.082
300.078
300.074
300.069
300.066
300.062
300.058
300.055
300.052
300.049
300.046
300.043
300.04
300.038
300.035
300.033
300.03
300.028
300.026
300.024
300.022
300.02
300.018
300.016
300.014
300.013
300.011
300.009
300.007
300.006
300.004
300.002
300.001
300.489
300.463
300.44
300.417
300.396
300.375
300.356
300.338
300.32
300.304
300.288
300.273
300.259
300.246
300.233
300.221
300.209
300.198
300.188
300.178
300.169
300.16
300.151
300.143
300.136
300.128
300.122
300.115
300.109
300.103
300.097
300.092
300.086
300.081
300.077
300.072
300.068
300.064
300.06
300.056
300.052
300.049
300.046
300.042
300.039
300.036
300.033
300.03
300.028
300.025
300.022
300.02
300.017
300.015
300.013
300.01
300.008
300.006
300.003
300.001
300.626
300.594
300.563
300.534
300.507
300.481
300.456
300.432
300.41
300.389
300.369
300.35
300.332
300.315
300.298
300.283
300.268
300.254
300.241
300.228
300.216
300.205
300.194
300.184
300.174
300.165
300.156
300.147
300.139
300.132
300.124
300.117
300.111
300.104
300.098
300.092
300.087
300.082
300.077
300.072
300.067
300.063
300.058
300.054
300.05
300.046
300.043
300.039
300.036
300.032
300.029
300.026
300.022
300.019
300.016
300.013
300.01
300.007
300.004
300.001
300.761
300.722
300.685
300.65
300.616
300.585
300.555
300.526
300.499
300.473
300.449
300.426
300.404
300.383
300.363
300.344
300.326
300.309
300.293
300.278
300.263
300.249
300.236
300.223
300.212
300.2
300.189
300.179
300.169
300.16
300.151
300.143
300.135
300.127
300.12
300.113
300.106
300.099
300.093
300.087
300.082
300.076
300.071
300.066
300.061
300.056
300.052
300.047
300.043
300.039
300.035
300.031
300.027
300.023
300.02
300.016
300.012
300.009
300.005
300.002
300.895
300.849
300.805
300.764
300.725
300.687
300.652
300.618
300.587
300.556
300.528
300.5
300.474
300.45
300.427
300.404
300.383
300.363
300.344
300.326
300.309
300.293
300.277
300.263
300.249
300.235
300.223
300.211
300.199
300.188
300.178
300.168
300.158
300.149
300.141
300.132
300.124
300.117
300.11
300.103
300.096
300.09
300.083
300.077
300.072
300.066
300.061
300.056
300.051
300.046
300.041
300.037
300.032
300.028
300.023
300.019
300.015
300.01
300.006
300.002
301.026
300.973
300.923
300.876
300.831
300.788
300.747
300.709
300.672
300.638
300.605
300.574
300.544
300.516
300.489
300.464
300.44
300.417
300.395
300.374
300.354
300.336
300.318
300.301
300.285
300.27
300.255
300.241
300.228
300.216
300.204
300.192
300.181
300.171
300.161
300.152
300.143
300.134
300.126
300.118
300.11
300.103
300.096
300.089
300.082
300.076
300.07
300.064
300.058
300.053
300.047
300.042
300.037
300.032
300.027
300.022
300.017
300.012
300.007
300.002
301.154
301.094
301.038
300.985
300.934
300.886
300.841
300.797
300.756
300.717
300.68
300.645
300.612
300.58
300.55
300.522
300.494
300.469
300.444
300.421
300.399
300.378
300.358
300.339
300.321
300.303
300.287
300.272
300.257
300.243
300.229
300.216
300.204
300.192
300.181
300.171
300.16
300.151
300.141
300.132
300.124
300.116
300.108
300.1
300.093
300.085
300.079
300.072
300.065
300.059
300.053
300.047
300.041
300.036
300.03
300.024
300.019
300.013
300.008
300.003
301.279
301.213
301.151
301.092
301.035
300.982
300.932
300.884
300.838
300.795
300.754
300.715
300.678
300.643
300.61
300.578
300.548
300.519
300.492
300.466
300.442
300.419
300.397
300.375
300.355
300.336
300.318
300.301
300.285
300.269
300.254
300.24
300.226
300.213
300.201
300.189
300.178
300.167
300.157
300.147
300.137
300.128
300.119
300.111
300.103
300.095
300.087
300.08
300.073
300.066
300.059
300.052
300.046
300.039
300.033
300.027
300.021
300.015
300.009
300.003
301.4
301.328
301.26
301.195
301.134
301.076
301.02
300.968
300.918
300.871
300.826
300.783
300.743
300.704
300.668
300.633
300.6
300.569
300.539
300.511
300.484
300.458
300.434
300.411
300.389
300.368
300.348
300.33
300.312
300.294
300.278
300.263
300.248
300.233
300.22
300.207
300.195
300.183
300.171
300.161
300.15
300.14
300.131
300.121
300.112
300.104
300.095
300.087
300.079
300.072
300.064
300.057
300.05
300.043
300.036
300.03
300.023
300.016
300.01
300.003
301.517
301.439
301.366
301.295
301.229
301.166
301.106
301.049
300.995
300.944
300.895
300.849
300.805
300.763
300.724
300.686
300.65
300.617
300.584
300.554
300.525
300.497
300.471
300.446
300.422
300.399
300.378
300.357
300.338
300.319
300.301
300.285
300.268
300.253
300.238
300.224
300.211
300.198
300.186
300.174
300.163
300.152
300.142
300.131
300.122
300.112
300.103
300.095
300.086
300.078
300.07
300.062
300.054
300.047
300.039
300.032
300.025
300.018
300.011
300.004
301.631
301.547
301.468
301.392
301.321
301.253
301.188
301.127
301.069
301.014
300.962
300.912
300.865
300.82
300.778
300.737
300.699
300.663
300.628
300.595
300.564
300.534
300.506
300.479
300.453
300.429
300.406
300.384
300.363
300.343
300.324
300.306
300.289
300.272
300.256
300.241
300.227
300.213
300.2
300.187
300.175
300.163
300.152
300.141
300.131
300.121
300.111
300.102
300.093
300.084
300.075
300.067
300.058
300.05
300.042
300.034
300.027
300.019
300.011
300.004
301.739
301.65
301.565
301.485
301.409
301.337
301.268
301.203
301.141
301.082
301.026
300.973
300.923
300.875
300.83
300.787
300.746
300.707
300.67
300.635
300.602
300.57
300.54
300.511
300.484
300.458
300.433
300.41
300.387
300.366
300.346
300.326
300.308
300.29
300.273
300.257
300.242
300.227
300.213
300.2
300.187
300.174
300.162
300.151
300.14
300.129
300.119
300.109
300.099
300.089
300.08
300.071
300.062
300.054
300.045
300.037
300.028
300.02
300.012
300.004
301.843
301.749
301.659
301.574
301.493
301.417
301.344
301.275
301.209
301.147
301.088
301.031
300.978
300.928
300.879
300.834
300.79
300.749
300.71
300.673
300.638
300.604
300.572
300.542
300.513
300.485
300.459
300.434
300.41
300.388
300.366
300.346
300.326
300.308
300.29
300.273
300.256
300.241
300.226
300.212
300.198
300.185
300.172
300.16
300.148
300.137
300.126
300.115
300.105
300.095
300.085
300.075
300.066
300.057
300.048
300.039
300.03
300.022
300.013
300.004
301.942
301.843
301.748
301.658
301.573
301.493
301.416
301.343
301.274
301.208
301.146
301.087
301.031
300.977
300.927
300.879
300.833
300.79
300.748
300.709
300.672
300.636
300.603
300.571
300.54
300.511
300.484
300.458
300.433
300.409
300.386
300.364
300.344
300.324
300.305
300.287
300.27
300.254
300.238
300.223
300.209
300.195
300.181
300.168
300.156
300.144
300.132
300.121
300.11
300.1
300.089
300.079
300.07
300.06
300.05
300.041
300.032
300.023
300.014
300.005
302.036
301.931
301.832
301.738
301.649
301.565
301.484
301.408
301.335
301.267
301.201
301.139
301.08
301.025
300.971
300.921
300.873
300.828
300.784
300.743
300.704
300.667
300.632
300.598
300.566
300.536
300.507
300.48
300.453
300.428
300.405
300.382
300.36
300.34
300.32
300.301
300.283
300.266
300.25
300.234
300.219
300.204
300.19
300.177
300.164
300.151
300.139
300.127
300.116
300.105
300.094
300.083
300.073
300.063
300.053
300.043
300.033
300.024
300.014
300.005
302.124
302.015
301.912
301.814
301.721
301.632
301.548
301.469
301.393
301.321
301.253
301.189
301.127
301.069
301.014
300.961
300.911
300.863
300.818
300.775
300.735
300.696
300.659
300.624
300.591
300.559
300.529
300.5
300.473
300.447
300.422
300.399
300.376
300.354
300.334
300.314
300.296
300.278
300.26
300.244
300.228
300.213
300.198
300.184
300.171
300.158
300.145
300.133
300.121
300.109
300.098
300.087
300.076
300.066
300.055
300.045
300.035
300.025
300.015
300.005
302.206
302.093
301.986
301.884
301.787
301.695
301.608
301.526
301.447
301.373
301.302
301.235
301.171
301.11
301.053
300.998
300.946
300.897
300.85
300.806
300.763
300.723
300.685
300.648
300.614
300.581
300.55
300.52
300.491
300.464
300.439
300.414
300.391
300.368
300.347
300.327
300.307
300.288
300.27
300.253
300.237
300.221
300.206
300.191
300.177
300.164
300.15
300.138
300.125
300.113
300.102
300.09
300.079
300.068
300.057
300.047
300.036
300.026
300.015
300.005
302.282
302.165
302.054
301.949
301.849
301.754
301.664
301.578
301.497
301.42
301.347
301.277
301.211
301.149
301.089
301.033
300.979
300.928
300.879
300.833
300.79
300.748
300.708
300.671
300.635
300.601
300.569
300.538
300.508
300.48
300.454
300.428
300.404
300.381
300.359
300.338
300.318
300.298
300.28
300.262
300.245
300.229
300.213
300.198
300.183
300.169
300.156
300.143
300.13
300.117
300.105
300.093
300.082
300.07
300.059
300.048
300.037
300.027
300.016
300.005
302.352
302.231
302.117
302.008
301.905
301.808
301.715
301.627
301.543
301.464
301.388
301.317
301.249
301.184
301.123
301.064
301.009
300.956
300.906
300.859
300.814
300.771
300.73
300.691
300.655
300.619
300.586
300.554
300.524
300.495
300.468
300.442
300.417
300.393
300.37
300.348
300.327
300.307
300.288
300.27
300.253
300.236
300.22
300.204
300.189
300.174
300.16
300.147
300.134
300.121
300.108
300.096
300.084
300.073
300.061
300.05
300.039
300.027
300.016
300.005
302.415
302.291
302.174
302.063
301.957
301.856
301.761
301.671
301.585
301.503
301.426
301.352
301.282
301.216
301.153
301.093
301.036
300.982
300.931
300.882
300.836
300.792
300.75
300.71
300.672
300.636
300.602
300.569
300.538
300.509
300.48
300.453
300.428
300.403
300.38
300.358
300.336
300.316
300.296
300.277
300.259
300.242
300.226
300.21
300.194
300.179
300.165
300.151
300.137
300.124
300.111
300.099
300.087
300.075
300.063
300.051
300.04
300.028
300.017
300.006
302.472
302.345
302.225
302.111
302.003
301.9
301.803
301.71
301.622
301.539
301.459
301.384
301.313
301.245
301.18
301.119
301.061
301.005
300.953
300.903
300.856
300.81
300.768
300.727
300.688
300.651
300.616
300.583
300.551
300.521
300.492
300.464
300.438
300.413
300.389
300.366
300.344
300.323
300.303
300.284
300.266
300.248
300.231
300.214
300.199
300.183
300.169
300.154
300.141
300.127
300.114
300.101
300.089
300.076
300.064
300.052
300.041
300.029
300.017
300.006
302.522
302.393
302.27
302.154
302.043
301.939
301.839
301.745
301.655
301.57
301.489
301.412
301.339
301.27
301.204
301.142
301.082
301.026
300.972
300.921
300.873
300.827
300.783
300.742
300.702
300.664
300.629
300.595
300.562
300.531
300.502
300.474
300.447
300.421
300.397
300.373
300.351
300.33
300.309
300.29
300.271
300.253
300.236
300.219
300.203
300.187
300.172
300.158
300.143
300.13
300.116
300.103
300.09
300.078
300.066
300.053
300.041
300.029
300.018
300.006
302.565
302.434
302.309
302.191
302.078
301.972
301.871
301.775
301.683
301.597
301.514
301.436
301.362
301.292
301.225
301.161
301.101
301.043
300.989
300.937
300.888
300.841
300.797
300.754
300.714
300.676
300.639
300.605
300.572
300.54
300.51
300.482
300.454
300.428
300.404
300.38
300.357
300.335
300.315
300.295
300.276
300.257
300.24
300.223
300.206
300.19
300.175
300.16
300.146
300.132
300.118
300.105
300.092
300.079
300.067
300.054
300.042
300.03
300.018
300.006
302.601
302.468
302.341
302.222
302.108
302
301.897
301.8
301.707
301.619
301.536
301.457
301.381
301.31
301.242
301.178
301.116
301.058
301.003
300.95
300.9
300.853
300.808
300.765
300.724
300.685
300.648
300.613
300.58
300.548
300.517
300.488
300.461
300.434
300.409
300.385
300.362
300.34
300.319
300.299
300.28
300.261
300.243
300.226
300.209
300.193
300.178
300.163
300.148
300.134
300.12
300.106
300.093
300.08
300.068
300.055
300.043
300.03
300.018
300.006
302.63
302.495
302.368
302.246
302.131
302.022
301.918
301.82
301.726
301.637
301.553
301.473
301.397
301.325
301.256
301.191
301.129
301.07
301.014
300.961
300.911
300.863
300.817
300.774
300.732
300.693
300.656
300.62
300.586
300.554
300.523
300.494
300.466
300.439
300.414
300.39
300.366
300.344
300.323
300.302
300.283
300.264
300.246
300.228
300.211
300.195
300.18
300.164
300.15
300.135
300.121
300.108
300.094
300.081
300.068
300.056
300.043
300.031
300.018
300.006
302.652
302.516
302.387
302.265
302.149
302.039
301.934
301.835
301.74
301.651
301.566
301.485
301.408
301.336
301.266
301.201
301.138
301.079
301.023
300.969
300.918
300.87
300.824
300.78
300.738
300.699
300.661
300.625
300.591
300.559
300.528
300.498
300.47
300.443
300.417
300.393
300.369
300.347
300.325
300.305
300.285
300.266
300.248
300.23
300.213
300.197
300.181
300.166
300.151
300.136
300.122
300.109
300.095
300.082
300.069
300.056
300.043
300.031
300.019
300.006
302.666
302.53
302.4
302.277
302.161
302.05
301.945
301.845
301.75
301.66
301.574
301.493
301.416
301.343
301.273
301.207
301.145
301.085
301.028
300.974
300.923
300.875
300.828
300.784
300.742
300.703
300.665
300.629
300.594
300.562
300.531
300.501
300.472
300.445
300.42
300.395
300.371
300.349
300.327
300.306
300.287
300.267
300.249
300.231
300.214
300.198
300.182
300.167
300.152
300.137
300.123
300.109
300.096
300.082
300.069
300.056
300.044
300.031
300.019
300.006
302.674
302.537
302.407
302.284
302.167
302.056
301.95
301.85
301.755
301.665
301.579
301.497
301.42
301.347
301.277
301.211
301.148
301.088
301.031
300.977
300.926
300.877
300.831
300.786
300.744
300.705
300.667
300.63
300.596
300.563
300.532
300.502
300.474
300.447
300.421
300.396
300.372
300.35
300.328
300.307
300.287
300.268
300.25
300.232
300.215
300.198
300.183
300.167
300.152
300.137
300.123
300.109
300.096
300.083
300.069
300.057
300.044
300.031
300.019
300.006
302.674
302.537
302.407
302.284
302.167
302.056
301.95
301.85
301.755
301.665
301.579
301.497
301.42
301.347
301.277
301.211
301.148
301.088
301.031
300.977
300.926
300.877
300.831
300.786
300.744
300.705
300.667
300.63
300.596
300.563
300.532
300.502
300.474
300.447
300.421
300.396
300.372
300.35
300.328
300.307
300.287
300.268
300.25
300.232
300.215
300.198
300.183
300.167
300.152
300.137
300.123
300.109
300.096
300.083
300.069
300.057
300.044
300.031
300.019
300.006
302.666
302.53
302.4
302.277
302.161
302.05
301.945
301.845
301.75
301.66
301.574
301.493
301.416
301.343
301.273
301.207
301.145
301.085
301.028
300.974
300.923
300.875
300.828
300.784
300.742
300.703
300.665
300.629
300.594
300.562
300.531
300.501
300.472
300.445
300.42
300.395
300.371
300.349
300.327
300.306
300.287
300.267
300.249
300.231
300.214
300.198
300.182
300.167
300.152
300.137
300.123
300.109
300.096
300.082
300.069
300.056
300.044
300.031
300.019
300.006
302.652
302.516
302.387
302.265
302.149
302.039
301.934
301.835
301.74
301.651
301.566
301.485
301.408
301.336
301.266
301.201
301.138
301.079
301.023
300.969
300.918
300.87
300.824
300.78
300.738
300.699
300.661
300.625
300.591
300.559
300.528
300.498
300.47
300.443
300.417
300.393
300.369
300.347
300.325
300.305
300.285
300.266
300.248
300.23
300.213
300.197
300.181
300.166
300.151
300.136
300.122
300.109
300.095
300.082
300.069
300.056
300.043
300.031
300.019
300.006
302.63
302.495
302.368
302.246
302.131
302.022
301.918
301.82
301.726
301.637
301.553
301.473
301.397
301.325
301.256
301.191
301.129
301.07
301.014
300.961
300.911
300.863
300.817
300.774
300.732
300.693
300.656
300.62
300.586
300.554
300.523
300.494
300.466
300.439
300.414
300.39
300.366
300.344
300.323
300.302
300.283
300.264
300.246
300.228
300.211
300.195
300.18
300.164
300.15
300.135
300.121
300.108
300.094
300.081
300.068
300.056
300.043
300.031
300.018
300.006
302.601
302.468
302.341
302.222
302.108
302
301.897
301.8
301.707
301.619
301.536
301.457
301.381
301.31
301.242
301.178
301.116
301.058
301.003
300.95
300.9
300.853
300.808
300.765
300.724
300.685
300.648
300.613
300.58
300.548
300.517
300.488
300.461
300.434
300.409
300.385
300.362
300.34
300.319
300.299
300.28
300.261
300.243
300.226
300.209
300.193
300.178
300.163
300.148
300.134
300.12
300.106
300.093
300.08
300.068
300.055
300.043
300.03
300.018
300.006
302.565
302.434
302.309
302.191
302.078
301.972
301.871
301.775
301.683
301.597
301.514
301.436
301.362
301.292
301.225
301.161
301.101
301.043
300.989
300.937
300.888
300.841
300.797
300.754
300.714
300.676
300.639
300.605
300.572
300.54
300.51
300.482
300.454
300.428
300.404
300.38
300.357
300.335
300.315
300.295
300.276
300.257
300.24
300.223
300.206
300.19
300.175
300.16
300.146
300.132
300.118
300.105
300.092
300.079
300.067
300.054
300.042
300.03
300.018
300.006
302.522
302.393
302.27
302.154
302.043
301.939
301.839
301.745
301.655
301.57
301.489
301.412
301.339
301.27
301.204
301.142
301.082
301.026
300.972
300.921
300.873
300.827
300.783
300.742
300.702
300.664
300.629
300.595
300.562
300.531
300.502
300.474
300.447
300.421
300.397
300.373
300.351
300.33
300.309
300.29
300.271
300.253
300.236
300.219
300.203
300.187
300.172
300.158
300.143
300.13
300.116
300.103
300.09
300.078
300.066
300.053
300.041
300.029
300.018
300.006
302.472
302.345
302.225
302.111
302.003
301.9
301.803
301.71
301.622
301.539
301.459
301.384
301.313
301.245
301.18
301.119
301.061
301.005
300.953
300.903
300.856
300.81
300.768
300.727
300.688
300.651
300.616
300.583
300.551
300.521
300.492
300.464
300.438
300.413
300.389
300.366
300.344
300.323
300.303
300.284
300.266
300.248
300.231
300.214
300.199
300.183
300.169
300.154
300.141
300.127
300.114
300.101
300.089
300.076
300.064
300.052
300.041
300.029
300.017
300.006
302.415
302.291
302.174
302.063
301.957
301.856
301.761
301.671
301.585
301.503
301.426
301.352
301.282
301.216
301.153
301.093
301.036
300.982
300.931
300.882
300.836
300.792
300.75
300.71
300.672
300.636
300.602
300.569
300.538
300.509
300.48
300.453
300.428
300.403
300.38
300.358
300.336
300.316
300.296
300.277
300.259
300.242
300.226
300.21
300.194
300.179
300.165
300.151
300.137
300.124
300.111
300.099
300.087
300.075
300.063
300.051
300.04
300.028
300.017
300.006
302.352
302.231
302.117
302.008
301.905
301.808
301.715
301.627
301.543
301.464
301.388
301.317
301.249
301.184
301.123
301.064
301.009
300.956
300.906
300.859
300.814
300.771
300.73
300.691
300.655
300.619
300.586
300.554
300.524
300.495
300.468
300.442
300.417
300.393
300.37
300.348
300.327
300.307
300.288
300.27
300.253
300.236
300.22
300.204
300.189
300.174
300.16
300.147
300.134
300.121
300.108
300.096
300.084
300.073
300.061
300.05
300.039
300.027
300.016
300.005
302.282
302.165
302.054
301.949
301.849
301.754
301.664
301.578
301.497
301.42
301.347
301.277
301.211
301.149
301.089
301.033
300.979
300.928
300.879
300.833
300.79
300.748
300.708
300.671
300.635
300.601
300.569
300.538
300.508
300.48
300.454
300.428
300.404
300.381
300.359
300.338
300.318
300.298
300.28
300.262
300.245
300.229
300.213
300.198
300.183
300.169
300.156
300.143
300.13
300.117
300.105
300.093
300.082
300.07
300.059
300.048
300.037
300.027
300.016
300.005
302.206
302.093
301.986
301.884
301.787
301.695
301.608
301.526
301.447
301.373
301.302
301.235
301.171
301.11
301.053
300.998
300.946
300.897
300.85
300.806
300.763
300.723
300.685
300.648
300.614
300.581
300.55
300.52
300.491
300.464
300.439
300.414
300.391
300.368
300.347
300.327
300.307
300.288
300.27
300.253
300.237
300.221
300.206
300.191
300.177
300.164
300.15
300.138
300.125
300.113
300.102
300.09
300.079
300.068
300.057
300.047
300.036
300.026
300.015
300.005
302.124
302.015
301.912
301.814
301.721
301.632
301.548
301.469
301.393
301.321
301.253
301.189
301.127
301.069
301.014
300.961
300.911
300.863
300.818
300.775
300.735
300.696
300.659
300.624
300.591
300.559
300.529
300.5
300.473
300.447
300.422
300.399
300.376
300.354
300.334
300.314
300.296
300.278
300.26
300.244
300.228
300.213
300.198
300.184
300.171
300.158
300.145
300.133
300.121
300.109
300.098
300.087
300.076
300.066
300.055
300.045
300.035
300.025
300.015
300.005
302.036
301.931
301.832
301.738
301.649
301.565
301.484
301.408
301.335
301.267
301.201
301.139
301.08
301.025
300.971
300.921
300.873
300.828
300.784
300.743
300.704
300.667
300.632
300.598
300.566
300.536
300.507
300.48
300.453
300.428
300.405
300.382
300.36
300.34
300.32
300.301
300.283
300.266
300.25
300.234
300.219
300.204
300.19
300.177
300.164
300.151
300.139
300.127
300.116
300.105
300.094
300.083
300.073
300.063
300.053
300.043
300.033
300.024
300.014
300.005
301.942
301.843
301.748
301.658
301.573
301.493
301.416
301.343
301.274
301.208
301.146
301.087
301.031
300.977
300.927
300.879
300.833
300.79
300.748
300.709
300.672
300.636
300.603
300.571
300.54
300.511
300.484
300.458
300.433
300.409
300.386
300.364
300.344
300.324
300.305
300.287
300.27
300.254
300.238
300.223
300.209
300.195
300.181
300.168
300.156
300.144
300.132
300.121
300.11
300.1
300.089
300.079
300.07
300.06
300.05
300.041
300.032
300.023
300.014
300.005
301.843
301.749
301.659
301.574
301.493
301.417
301.344
301.275
301.209
301.147
301.088
301.031
300.978
300.928
300.879
300.834
300.79
300.749
300.71
300.673
300.638
300.604
300.572
300.542
300.513
300.485
300.459
300.434
300.41
300.388
300.366
300.346
300.326
300.308
300.29
300.273
300.256
300.241
300.226
300.212
300.198
300.185
300.172
300.16
300.148
300.137
300.126
300.115
300.105
300.095
300.085
300.075
300.066
300.057
300.048
300.039
300.03
300.022
300.013
300.004
301.739
301.65
301.565
301.485
301.409
301.337
301.268
301.203
301.141
301.082
301.026
300.973
300.923
300.875
300.83
300.787
300.746
300.707
300.67
300.635
300.602
300.57
300.54
300.511
300.484
300.458
300.433
300.41
300.387
300.366
300.346
300.326
300.308
300.29
300.273
300.257
300.242
300.227
300.213
300.2
300.187
300.174
300.162
300.151
300.14
300.129
300.119
300.109
300.099
300.089
300.08
300.071
300.062
300.054
300.045
300.037
300.028
300.02
300.012
300.004
301.631
301.547
301.468
301.392
301.321
301.253
301.188
301.127
301.069
301.014
300.962
300.912
300.865
300.82
300.778
300.737
300.699
300.663
300.628
300.595
300.564
300.534
300.506
300.479
300.453
300.429
300.406
300.384
300.363
300.343
300.324
300.306
300.289
300.272
300.256
300.241
300.227
300.213
300.2
300.187
300.175
300.163
300.152
300.141
300.131
300.121
300.111
300.102
300.093
300.084
300.075
300.067
300.058
300.05
300.042
300.034
300.027
300.019
300.011
300.004
301.517
301.439
301.366
301.295
301.229
301.166
301.106
301.049
300.995
300.944
300.895
300.849
300.805
300.763
300.724
300.686
300.65
300.617
300.584
300.554
300.525
300.497
300.471
300.446
300.422
300.399
300.378
300.357
300.338
300.319
300.301
300.285
300.268
300.253
300.238
300.224
300.211
300.198
300.186
300.174
300.163
300.152
300.142
300.131
300.122
300.112
300.103
300.095
300.086
300.078
300.07
300.062
300.054
300.047
300.039
300.032
300.025
300.018
300.011
300.004
301.4
301.328
301.26
301.195
301.134
301.076
301.02
300.968
300.918
300.871
300.826
300.783
300.743
300.704
300.668
300.633
300.6
300.569
300.539
300.511
300.484
300.458
300.434
300.411
300.389
300.368
300.348
300.33
300.312
300.294
300.278
300.263
300.248
300.233
300.22
300.207
300.195
300.183
300.171
300.161
300.15
300.14
300.131
300.121
300.112
300.104
300.095
300.087
300.079
300.072
300.064
300.057
300.05
300.043
300.036
300.03
300.023
300.016
300.01
300.003
301.279
301.213
301.151
301.092
301.035
300.982
300.932
300.884
300.838
300.795
300.754
300.715
300.678
300.643
300.61
300.578
300.548
300.519
300.492
300.466
300.442
300.419
300.397
300.375
300.355
300.336
300.318
300.301
300.285
300.269
300.254
300.24
300.226
300.213
300.201
300.189
300.178
300.167
300.157
300.147
300.137
300.128
300.119
300.111
300.103
300.095
300.087
300.08
300.073
300.066
300.059
300.052
300.046
300.039
300.033
300.027
300.021
300.015
300.009
300.003
301.154
301.094
301.038
300.985
300.934
300.886
300.841
300.797
300.756
300.717
300.68
300.645
300.612
300.58
300.55
300.522
300.494
300.469
300.444
300.421
300.399
300.378
300.358
300.339
300.321
300.303
300.287
300.272
300.257
300.243
300.229
300.216
300.204
300.192
300.181
300.171
300.16
300.151
300.141
300.132
300.124
300.116
300.108
300.1
300.093
300.085
300.079
300.072
300.065
300.059
300.053
300.047
300.041
300.036
300.03
300.024
300.019
300.013
300.008
300.003
301.026
300.973
300.923
300.876
300.831
300.788
300.747
300.709
300.672
300.638
300.605
300.574
300.544
300.516
300.489
300.464
300.44
300.417
300.395
300.374
300.354
300.336
300.318
300.301
300.285
300.27
300.255
300.241
300.228
300.216
300.204
300.192
300.181
300.171
300.161
300.152
300.143
300.134
300.126
300.118
300.11
300.103
300.096
300.089
300.082
300.076
300.07
300.064
300.058
300.053
300.047
300.042
300.037
300.032
300.027
300.022
300.017
300.012
300.007
300.002
300.895
300.849
300.805
300.764
300.725
300.687
300.652
300.618
300.587
300.556
300.528
300.5
300.474
300.45
300.427
300.404
300.383
300.363
300.344
300.326
300.309
300.293
300.277
300.263
300.249
300.235
300.223
300.211
300.199
300.188
300.178
300.168
300.158
300.149
300.141
300.132
300.124
300.117
300.11
300.103
300.096
300.09
300.083
300.077
300.072
300.066
300.061
300.056
300.051
300.046
300.041
300.037
300.032
300.028
300.023
300.019
300.015
300.01
300.006
300.002
300.761
300.722
300.685
300.65
300.616
300.585
300.555
300.526
300.499
300.473
300.449
300.426
300.404
300.383
300.363
300.344
300.326
300.309
300.293
300.278
300.263
300.249
300.236
300.223
300.212
300.2
300.189
300.179
300.169
300.16
300.151
300.143
300.135
300.127
300.12
300.113
300.106
300.099
300.093
300.087
300.082
300.076
300.071
300.066
300.061
300.056
300.052
300.047
300.043
300.039
300.035
300.031
300.027
300.023
300.02
300.016
300.012
300.009
300.005
300.002
300.626
300.594
300.563
300.534
300.507
300.481
300.456
300.432
300.41
300.389
300.369
300.35
300.332
300.315
300.298
300.283
300.268
300.254
300.241
300.228
300.216
300.205
300.194
300.184
300.174
300.165
300.156
300.147
300.139
300.132
300.124
300.117
300.111
300.104
300.098
300.092
300.087
300.082
300.077
300.072
300.067
300.063
300.058
300.054
300.05
300.046
300.043
300.039
300.036
300.032
300.029
300.026
300.022
300.019
300.016
300.013
300.01
300.007
300.004
300.001
300.489
300.463
300.44
300.417
300.396
300.375
300.356
300.338
300.32
300.304
300.288
300.273
300.259
300.246
300.233
300.221
300.209
300.198
300.188
300.178
300.169
300.16
300.151
300.143
300.136
300.128
300.122
300.115
300.109
300.103
300.097
300.092
300.086
300.081
300.077
300.072
300.068
300.064
300.06
300.056
300.052
300.049
300.046
300.042
300.039
300.036
300.033
300.03
300.028
300.025
300.022
300.02
300.017
300.015
300.013
300.01
300.008
300.006
300.003
300.001
300.35
300.332
300.315
300.299
300.283
300.269
300.255
300.242
300.229
300.218
300.206
300.196
300.186
300.176
300.167
300.158
300.15
300.142
300.135
300.128
300.121
300.115
300.108
300.103
300.097
300.092
300.087
300.082
300.078
300.074
300.069
300.066
300.062
300.058
300.055
300.052
300.049
300.046
300.043
300.04
300.038
300.035
300.033
300.03
300.028
300.026
300.024
300.022
300.02
300.018
300.016
300.014
300.013
300.011
300.009
300.007
300.006
300.004
300.002
300.001
300.21
300.2
300.189
300.18
300.17
300.162
300.153
300.145
300.138
300.131
300.124
300.118
300.112
300.106
300.1
300.095
300.09
300.085
300.081
300.077
300.073
300.069
300.065
300.062
300.058
300.055
300.052
300.049
300.047
300.044
300.042
300.039
300.037
300.035
300.033
300.031
300.029
300.027
300.026
300.024
300.023
300.021
300.02
300.018
300.017
300.016
300.014
300.013
300.012
300.011
300.01
300.009
300.008
300.006
300.005
300.004
300.003
300.002
300.001
300
300.07
300.067
300.063
300.06
300.057
300.054
300.051
300.048
300.046
300.044
300.041
300.039
300.037
300.035
300.033
300.032
300.03
300.028
300.027
300.026
300.024
300.023
300.022
300.021
300.019
300.018
300.017
300.017
300.016
300.015
300.014
300.013
300.012
300.012
300.011
300.01
300.01
300.009
300.009
300.008
300.008
300.007
300.007
300.006
300.006
300.005
300.005
300.004
300.004
300.004
300.003
300.003
300.003
300.002
300.002
300.001
300.001
300.001
300
300
)
;

boundaryField
{
    topWall
    {
        type            fixedValue;
        value           uniform 300;
    }
    rightWall
    {
        type            fixedValue;
        value           uniform 300;
    }
    bottomWall
    {
        type            fixedValue;
        value           uniform 300;
    }
    frontAndBack
    {
        type            empty;
    }
    solid_to_air
    {
        type            compressible::turbulentTemperatureCoupledBaffleMixed;
        refValue        nonuniform List<scalar> 
60
(
300.074
300.222
300.369
300.515
300.66
300.802
300.943
301.081
301.216
301.348
301.476
301.599
301.719
301.833
301.943
302.047
302.146
302.238
302.325
302.405
302.478
302.545
302.605
302.658
302.703
302.741
302.772
302.795
302.81
302.818
302.818
302.81
302.795
302.772
302.741
302.703
302.658
302.605
302.545
302.478
302.405
302.325
302.238
302.146
302.047
301.943
301.833
301.719
301.599