/*--------------------------------*- C++ -*----------------------------------*\
  =========                 |
  \\      /  F ield         | OpenFOAM: The Open Source CFD Toolbox
   \\    /   O peration     | Website:  https://openfoam.org
    \\  /    A nd           | Version:  7
     \\/     M anipulation  |
\*---------------------------------------------------------------------------*/
FoamFile
{
    version     2.0;
    format      ascii;
    class       volVectorField;
    location    "0.0436581";
    object      EA;
}
// * * * * * * * * * * * * * * * * * * * * * * * * * * * * * * * * * * * * * //

dimensions      [1 1 -3 0 0 -1 0];

internalField   nonuniform List<vector> 
58002
(
(-26.2885 75.0689 0)
(-80.6478 103.095 0)
(-141.424 154.836 0)
(-212.232 230.722 0)
(-294.417 328.924 0)
(-392.231 439.412 0)
(-522.079 539.147 0)
(-724.989 593.939 0)
(-1075.05 569.53 0)
(-1677.32 443.813 0)
(-2658.64 208.656 0)
(-4159.29 -138.207 0)
(-6327.82 -601.673 0)
(-9313.57 -1192.16 0)
(-13251.3 -1922.96 0)
(-18237.6 -2804.85 0)
(-24304 -3840.45 0)
(-31394.1 -5020.04 0)
(-39354.2 -6320 0)
(-47943.1 -7704.17 0)
(-56859.6 -9128.03 0)
(-65781.2 -10544.2 0)
(-74407.4 -11908.4 0)
(-82490.1 -13184.3 0)
(-89853.6 -14345.9 0)
(-96399.2 -15378.5 0)
(-102094 -16277.4 0)
(-106960 -17046 0)
(-111055 -17693.4 0)
(-114457 -18231.8 0)
(-117171 -18662.1 0)
(-119557 -19038.9 0)
(-122020 -19428.4 0)
(-124563 -19831.2 0)
(-127189 -20247.8 0)
(-129901 -20679.1 0)
(-132705 -21125.7 0)
(-135605 -21588.4 0)
(-138605 -22068.2 0)
(-141709 -22565.9 0)
(-144925 -23082.5 0)
(-148256 -23619.2 0)
(-151709 -24177 0)
(-155291 -24757.2 0)
(-159008 -25361.2 0)
(-162868 -25990.5 0)
(-166879 -26646.5 0)
(-171048 -27331 0)
(-175385 -28045.7 0)
(-179901 -28793.1 0)
(-184606 -29575.1 0)
(-189511 -30394.2 0)
(-194629 -31253.1 0)
(-199973 -32154.7 0)
(-205557 -33102.3 0)
(-211398 -34099.5 0)
(-217513 -35150.2 0)
(-223921 -36258.8 0)
(-230643 -37430.4 0)
(-237701 -38670.4 0)
(-245120 -39985 0)
(-252928 -41381.1 0)
(-261155 -42866.8 0)
(-269834 -44450.6 0)
(-279004 -46143.1 0)
(-288707 -47956 0)
(-298990 -49902.6 0)
(-309904 -51998.3 0)
(-321509 -54261.4 0)
(-333874 -56712.9 0)
(-347073 -59377.7 0)
(-361195 -62285.1 0)
(-376340 -65470.3 0)
(-392626 -68975.9 0)
(-410186 -72852.8 0)
(-429180 -77164 0)
(-449796 -81987.4 0)
(-472256 -87420.1 0)
(-496830 -93585.3 0)
(-523846 -100641 0)
(-553702 -108794 0)
(-586901 -118315 0)
(-624077 -129573 0)
(-666043 -143073 0)
(-713872 -159528 0)
(-769004 -179969 0)
(-833426 -205929 0)
(-909972 -239768 0)
(-1.00286e+06 -285265 0)
(-1.11865e+06 -348728 0)
(-1.26832e+06 -441207 0)
(-1.4723e+06 -583210 0)
(-1.77765e+06 -815787 0)
(-2.34972e+06 -1.23262e+06 0)
(-4.21146e+06 -2.11533e+06 0)
(-26.2822 75.0916 0)
(-80.6269 103.125 0)
(-141.382 154.88 0)
(-212.16 230.785 0)
(-294.308 329.016 0)
(-392.093 439.554 0)
(-521.954 539.402 0)
(-724.967 594.476 0)
(-1075.26 570.729 0)
(-1677.96 446.394 0)
(-2659.92 213.86 0)
(-4161.53 -128.359 0)
(-6331.5 -584.003 0)
(-9319.4 -1161.88 0)
(-13260.3 -1873.18 0)
(-18251.1 -2726.26 0)
(-24323.7 -3721.31 0)
(-31421.9 -4846.62 0)
(-39392.2 -6077.57 0)
(-47993.3 -7378.52 0)
(-56923.6 -8706.98 0)
(-65860.3 -10019.1 0)
(-74502.3 -11274.9 0)
(-82600.8 -12442.5 0)
(-89979.7 -13500.1 0)
(-96539.5 -14436 0)
(-102247 -15247.6 0)
(-107125 -15939.5 0)
(-111230 -16520.6 0)
(-114640 -17002.9 0)
(-117361 -17387.6 0)
(-119754 -17724 0)
(-122223 -18071.4 0)
(-124773 -18430.1 0)
(-127406 -18800.6 0)
(-130126 -19183.5 0)
(-132938 -19579.5 0)
(-135845 -19989.1 0)
(-138854 -20413.2 0)
(-141968 -20852.4 0)
(-145193 -21307.6 0)
(-148534 -21779.7 0)
(-151998 -22269.6 0)
(-155592 -22778.2 0)
(-159321 -23306.8 0)
(-163194 -23856.4 0)
(-167218 -24428.4 0)
(-171403 -25024.1 0)
(-175755 -25644.8 0)
(-180288 -26292.6 0)
(-185010 -26969.1 0)
(-189934 -27676.2 0)
(-195072 -28416 0)
(-200438 -29190.9 0)
(-206046 -30003.6 0)
(-211913 -30856.7 0)
(-218055 -31753.6 0)
(-224493 -32697.6 0)
(-231246 -33692.7 0)
(-238339 -34743.3 0)
(-245797 -35854.2 0)
(-253647 -37030.9 0)
(-261920 -38279.5 0)
(-270649 -39607 0)
(-279876 -41021.6 0)
(-289640 -42532.3 0)
(-299992 -44149.7 0)
(-310983 -45885.7 0)
(-322675 -47754.5 0)
(-335137 -49772.5 0)
(-348447 -51958.9 0)
(-362695 -54336.7 0)
(-377985 -56932.9 0)
(-394438 -59780.6 0)
(-412193 -62919 0)
(-431416 -66396.9 0)
(-452303 -70274.1 0)
(-475087 -74625.5 0)
(-500053 -79545.5 0)
(-527548 -85155.5 0)
(-557998 -91612.6 0)
(-591946 -99124.6 0)
(-630080 -107971 0)
(-673296 -118534 0)
(-722793 -131349 0)
(-780207 -147187 0)
(-847842 -167182 0)
(-929062 -193057 0)
(-1.02901e+06 -227527 0)
(-1.15592e+06 -275003 0)
(-1.32386e+06 -342887 0)
(-1.55888e+06 -443743 0)
(-1.91439e+06 -597294 0)
(-2.51249e+06 -817256 0)
(-3.57785e+06 -945196 0)
(-26.276 75.1125 0)
(-80.606 103.154 0)
(-141.34 154.922 0)
(-212.088 230.847 0)
(-294.199 329.107 0)
(-391.956 439.695 0)
(-521.83 539.655 0)
(-724.943 595.012 0)
(-1075.48 571.928 0)
(-1678.58 448.976 0)
(-2661.18 219.066 0)
(-4163.73 -118.505 0)
(-6335.11 -566.321 0)
(-9325.09 -1131.57 0)
(-13269 -1823.36 0)
(-18264.1 -2647.61 0)
(-24342.5 -3602.05 0)
(-31448.3 -4673 0)
(-39427.9 -5834.84 0)
(-48040.1 -7052.4 0)
(-56982.9 -8285.29 0)
(-65933.1 -9493.06 0)
(-74589 -10640.2 0)
(-82701.4 -11699.4 0)
(-90093.5 -12652.6 0)
(-96665.8 -13491.6 0)
(-102385 -14215.7 0)
(-107272 -14830.5 0)
(-111385 -15345.1 0)
(-114803 -15771 0)
(-117530 -16110 0)
(-119928 -16406 0)
(-122403 -16711.1 0)
(-124958 -17025.5 0)
(-127597 -17349.7 0)
(-130323 -17684.1 0)
(-133142 -18029.2 0)
(-136056 -18385.6 0)
(-139072 -18753.8 0)
(-142194 -19134.3 0)
(-145427 -19527.8 0)
(-148777 -19935 0)
(-152250 -20356.6 0)
(-155853 -20793.4 0)
(-159592 -21246.1 0)
(-163476 -21715.8 0)
(-167511 -22203.3 0)
(-171707 -22709.7 0)
(-176072 -23236 0)
(-180618 -23783.8 0)
(-185355 -24354.1 0)
(-190295 -24948.6 0)
(-195449 -25568.6 0)
(-200832 -26216.1 0)
(-206459 -26892.9 0)
(-212346 -27601.2 0)
(-218510 -28343.1 0)
(-224972 -29121.4 0)
(-231751 -29938.8 0)
(-238871 -30798.5 0)
(-246359 -31704.1 0)
(-254241 -32659.5 0)
(-262550 -33669.1 0)
(-271319 -34737.9 0)
(-280589 -35871.9 0)
(-290402 -37077.4 0)
(-300806 -38362 0)
(-311857 -39734.1 0)
(-323615 -41203.8 0)
(-336151 -42782.6 0)
(-349546 -44484.1 0)
(-363889 -46324.1 0)
(-379289 -48321.8 0)
(-395868 -50499.9 0)
(-413769 -52885.7 0)
(-433164 -55512.6 0)
(-454253 -58421.8 0)
(-477278 -61664 0)
(-502534 -65303.3 0)
(-530382 -69421.2 0)
(-561269 -74122.1 0)
(-595762 -79543 0)
(-634591 -85865.5 0)
(-678707 -93333.9 0)
(-729392 -102284 0)
(-788412 -113186 0)
(-858272 -126709 0)
(-942659 -143825 0)
(-1.04724e+06 -165972 0)
(-1.18114e+06 -195290 0)
(-1.35973e+06 -234893 0)
(-1.6101e+06 -288818 0)
(-1.97996e+06 -359315 0)
(-2.53817e+06 -428891 0)
(-3.25682e+06 -367221 0)
(-26.2697 75.1335 0)
(-80.5851 103.182 0)
(-141.298 154.964 0)
(-212.016 230.909 0)
(-294.091 329.198 0)
(-391.819 439.836 0)
(-521.704 539.909 0)
(-724.918 595.549 0)
(-1075.69 573.127 0)
(-1679.2 451.56 0)
(-2662.42 224.275 0)
(-4165.9 -108.644 0)
(-6338.65 -548.629 0)
(-9330.63 -1101.24 0)
(-13277.4 -1773.5 0)
(-18276.6 -2568.89 0)
(-24360.5 -3482.68 0)
(-31473.2 -4499.19 0)
(-39461.4 -5591.83 0)
(-48083.6 -6725.87 0)
(-57037.6 -7863.01 0)
(-65999.6 -8966.3 0)
(-74667.6 -10004.6 0)
(-82791.8 -10955 0)
(-90195.3 -11803.7 0)
(-96777.9 -12545.5 0)
(-102506 -13181.9 0)
(-107402 -13719.4 0)
(-111522 -14167.4 0)
(-114946 -14536.8 0)
(-117677 -14830 0)
(-120079 -15085.4 0)
(-122559 -15348 0)
(-125119 -15618 0)
(-127762 -15895.8 0)
(-130494 -16181.5 0)
(-133318 -16475.7 0)
(-136238 -16778.6 0)
(-139259 -17090.7 0)
(-142387 -17412.4 0)
(-145626 -17744 0)
(-148983 -18086.1 0)
(-152463 -18439.2 0)
(-156074 -18803.9 0)
(-159821 -19180.6 0)
(-163712 -19570 0)
(-167757 -19972.7 0)
(-171962 -20389.5 0)
(-176337 -20821 0)
(-180893 -21268.3 0)
(-185641 -21732.1 0)
(-190592 -22213.4 0)
(-195759 -22713.2 0)
(-201155 -23232.7 0)
(-206796 -23773.1 0)
(-212698 -24335.7 0)
(-218879 -24922 0)
(-225357 -25533.7 0)
(-232155 -26172.4 0)
(-239296 -26840.3 0)
(-246805 -27539.4 0)
(-254711 -28272.1 0)
(-263046 -29041.3 0)
(-271842 -29849.8 0)
(-281143 -30701.3 0)
(-290989 -31599.4 0)
(-301431 -32548.7 0)
(-312522 -33554 0)
(-324326 -34621.2 0)
(-336914 -35756.8 0)
(-350365 -36968.6 0)
(-364774 -38265.4 0)
(-380247 -39657.8 0)
(-396910 -41158.3 0)
(-414908 -42781.7 0)
(-434414 -44545.6 0)
(-455635 -46471.7 0)
(-478815 -48586.1 0)
(-504255 -50920.8 0)
(-532324 -53515.8 0)
(-563481 -56420.5 0)
(-598307 -59697 0)
(-637550 -63423.8 0)
(-682190 -67699.1 0)
(-733546 -72646.1 0)
(-793437 -78415.6 0)
(-864438 -85181.4 0)
(-950330 -93116.9 0)
(-1.05688e+06 -102315 0)
(-1.19325e+06 -112559 0)
(-1.37452e+06 -122697 0)
(-1.62627e+06 -129032 0)
(-1.99027e+06 -121607 0)
(-2.51678e+06 -79037.1 0)
(-3.14664e+06 13368.3 0)
(-26.2635 75.1544 0)
(-80.5642 103.21 0)
(-141.256 155.006 0)
(-211.944 230.971 0)
(-293.982 329.289 0)
(-391.681 439.977 0)
(-521.579 540.163 0)
(-724.892 596.086 0)
(-1075.89 574.327 0)
(-1679.81 454.146 0)
(-2663.65 229.488 0)
(-4168.04 -98.7782 0)
(-6342.11 -530.925 0)
(-9336.02 -1070.89 0)
(-13285.6 -1723.6 0)
(-18288.6 -2490.1 0)
(-24377.5 -3363.19 0)
(-31496.7 -4325.21 0)
(-39492.7 -5348.55 0)
(-48123.8 -6398.97 0)
(-57087.5 -7440.23 0)
(-66059.7 -8438.88 0)
(-74738 -9368.12 0)
(-82872.1 -10209.6 0)
(-90284.8 -10953.5 0)
(-96875.8 -11598 0)
(-102612 -12146.5 0)
(-107514 -12606.6 0)
(-111639 -12987.9 0)
(-115068 -13300.7 0)
(-117803 -13548 0)
(-120208 -13762.7 0)
(-122691 -13982.8 0)
(-125255 -14208.3 0)
(-127902 -14439.5 0)
(-130637 -14676.5 0)
(-133465 -14919.6 0)
(-136390 -15169 0)
(-139415 -15424.9 0)
(-142548 -15687.5 0)
(-145792 -15957.1 0)
(-149153 -16234 0)
(-152639 -16518.5 0)
(-156254 -16810.8 0)
(-160007 -17111.2 0)
(-163905 -17420.2 0)
(-167955 -17738 0)
(-172167 -18065 0)
(-176548 -18401.4 0)
(-181112 -18748 0)
(-185867 -19105 0)
(-190826 -19472.8 0)
(-196001 -19852.1 0)
(-201407 -20243.2 0)
(-207057 -20646.7 0)
(-212968 -21063.3 0)
(-219159 -21493.5 0)
(-225649 -21938 0)
(-232458 -22397.5 0)
(-239612 -22872.8 0)
(-247134 -23364.8 0)
(-255055 -23874.1 0)
(-263405 -24401.9 0)
(-272218 -24949.1 0)
(-281537 -25516.8 0)
(-291402 -26106.3 0)
(-301865 -26718.8 0)
(-312979 -27355.7 0)
(-324808 -28018.4 0)
(-337423 -28708.6 0)
(-350904 -29428.1 0)
(-365346 -30178.6 0)
(-380856 -30962.1 0)
(-397560 -31780.7 0)
(-415604 -32636.3 0)
(-435162 -33531 0)
(-456441 -34466.3 0)
(-479688 -35443.4 0)
(-505204 -36461.9 0)
(-533361 -37519.5 0)
(-564617 -38609.6 0)
(-599555 -39718.8 0)
(-638925 -40821 0)
(-683702 -41867 0)
(-735197 -42766.8 0)
(-795202 -43352.9 0)
(-866235 -43310.7 0)
(-951940 -42037.9 0)
(-1.05777e+06 -38351 0)
(-1.19218e+06 -29859.3 0)
(-1.36865e+06 -11615.7 0)
(-1.60951e+06 26718.6 0)
(-1.95288e+06 105791 0)
(-2.46506e+06 256196 0)
(-3.22125e+06 428917 0)
(-26.2572 75.1754 0)
(-80.5432 103.239 0)
(-141.214 155.048 0)
(-211.872 231.033 0)
(-293.873 329.38 0)
(-391.544 440.118 0)
(-521.453 540.417 0)
(-724.865 596.624 0)
(-1076.1 575.529 0)
(-1680.42 456.733 0)
(-2664.86 234.704 0)
(-4170.14 -88.9061 0)
(-6345.49 -513.21 0)
(-9341.27 -1040.53 0)
(-13293.5 -1673.67 0)
(-18300.1 -2411.25 0)
(-24393.7 -3243.61 0)
(-31518.8 -4151.07 0)
(-39521.7 -5105.05 0)
(-48160.7 -6071.74 0)
(-57132.7 -7017.01 0)
(-66113.5 -7910.89 0)
(-74800.1 -8730.94 0)
(-82942.2 -9463.34 0)
(-90362.1 -10102.4 0)
(-96959.6 -10649.4 0)
(-102701 -11109.9 0)
(-107608 -11492.5 0)
(-111737 -11806.9 0)
(-115169 -12063.1 0)
(-117907 -12264.4 0)
(-120315 -12438.4 0)
(-122800 -12615.9 0)
(-125366 -12796.9 0)
(-128016 -12981.5 0)
(-130754 -13169.7 0)
(-133584 -13361.7 0)
(-136512 -13557.4 0)
(-139540 -13757 0)
(-142675 -13960.5 0)
(-145923 -14168.1 0)
(-149287 -14379.7 0)
(-152776 -14595.4 0)
(-156395 -14815.3 0)
(-160151 -15039.4 0)
(-164052 -15267.8 0)
(-168106 -15500.6 0)
(-172322 -15737.6 0)
(-176707 -15978.9 0)
(-181274 -16224.6 0)
(-186034 -16474.6 0)
(-190997 -16728.9 0)
(-196176 -16987.4 0)
(-201586 -17250 0)
(-207241 -17516.5 0)
(-213157 -17786.9 0)
(-219352 -18060.8 0)
(-225847 -18337.9 0)
(-232661 -18618 0)
(-239820 -18900.6 0)
(-247347 -19185 0)
(-255273 -19470.7 0)
(-263628 -19756.8 0)
(-272446 -20042.3 0)
(-281770 -20326.1 0)
(-291640 -20606.5 0)
(-302108 -20881.8 0)
(-313226 -21149.7 0)
(-325059 -21407.6 0)
(-337677 -21651.9 0)
(-351162 -21878.4 0)
(-365605 -22082 0)
(-381115 -22256.1 0)
(-397817 -22392.1 0)
(-415856 -22479.5 0)
(-435406 -22504.4 0)
(-456671 -22448.7 0)
(-479896 -22288.5 0)
(-505379 -21991.5 0)
(-533488 -21513.6 0)
(-564672 -20793.2 0)
(-599504 -19742.7 0)
(-638713 -18234.6 0)
(-683244 -16077.9 0)
(-734351 -12979.5 0)
(-793732 -8474.42 0)
(-863726 -1801.07 0)
(-947644 8332.73 0)
(-1.05029e+06 24203.7 0)
(-1.17877e+06 49979.4 0)
(-1.34388e+06 93570.4 0)
(-1.56268e+06 170517 0)
(-1.86597e+06 312260 0)
(-2.34175e+06 584881 0)
(-3.51773e+06 1.14682e+06 0)
(8.4621e+06 -4.11615e+06 0)
(4.87098e+06 -2.39533e+06 0)
(3.8279e+06 -1.62327e+06 0)
(3.29899e+06 -1.21773e+06 0)
(2.96269e+06 -989641 0)
(2.72813e+06 -858546 0)
(2.55601e+06 -785507 0)
(2.4252e+06 -750336 0)
(2.32284e+06 -742134 0)
(2.24025e+06 -754893 0)
(2.17097e+06 -785304 0)
(2.10958e+06 -831530 0)
(2.05104e+06 -892419 0)
(1.99023e+06 -966846 0)
(1.92177e+06 -1.05304e+06 0)
(1.8402e+06 -1.14781e+06 0)
(1.7406e+06 -1.24587e+06 0)
(1.61991e+06 -1.33939e+06 0)
(1.4786e+06 -1.41867e+06 0)
(7.24394e+06 -1.88378e+06 0)
(5.17395e+06 -1.63989e+06 0)
(4.06705e+06 -1.24399e+06 0)
(3.43937e+06 -986588 0)
(3.0433e+06 -834252 0)
(2.7733e+06 -747635 0)
(2.57881e+06 -702929 0)
(2.43269e+06 -686756 0)
(2.31888e+06 -691625 0)
(2.227e+06 -713324 0)
(2.14964e+06 -749477 0)
(2.08091e+06 -798684 0)
(2.01564e+06 -859922 0)
(1.94891e+06 -932027 0)
(1.87584e+06 -1.01316e+06 0)
(1.79182e+06 -1.10029e+06 0)
(1.69298e+06 -1.18866e+06 0)
(1.57718e+06 -1.27179e+06 0)
(1.44515e+06 -1.34201e+06 0)
(6.60239e+06 -768789 0)
(5.20865e+06 -926792 0)
(4.1727e+06 -826141 0)
(3.51524e+06 -726181 0)
(3.0888e+06 -660557 0)
(2.79744e+06 -625050 0)
(2.58814e+06 -612403 0)
(2.43117e+06 -617315 0)
(2.30882e+06 -636428 0)
(2.20972e+06 -667728 0)
(2.12591e+06 -710013 0)
(2.05129e+06 -762486 0)
(1.98066e+06 -824398 0)
(1.90935e+06 -894692 0)
(1.83297e+06 -971627 0)
(1.74757e+06 -1.05241e+06 0)
(1.65008e+06 -1.13292e+06 0)
(1.53898e+06 -1.20778e+06 0)
(1.41504e+06 -1.27092e+06 0)
(6.34906e+06 -38083.6 0)
(5.14368e+06 -285744 0)
(4.17292e+06 -408097 0)
(3.52677e+06 -456211 0)
(3.09668e+06 -478474 0)
(2.79871e+06 -496097 0)
(2.58289e+06 -516987 0)
(2.42001e+06 -543918 0)
(2.29227e+06 -577837 0)
(2.18817e+06 -619072 0)
(2.09963e+06 -667712 0)
(2.02054e+06 -723660 0)
(1.94587e+06 -786540 0)
(1.8712e+06 -855506 0)
(1.7926e+06 -929018 0)
(1.70669e+06 -1.00461e+06 0)
(1.61098e+06 -1.07875e+06 0)
(1.50435e+06 -1.14703e+06 0)
(1.38756e+06 -1.20462e+06 0)
(6.43148e+06 740397 0)
(5.01336e+06 320402 0)
(4.08273e+06 -10729.7 0)
(3.4781e+06 -193439 0)
(3.06775e+06 -297682 0)
(2.77711e+06 -366234 0)
(2.5629e+06 -419888 0)
(2.39905e+06 -468574 0)
(2.26915e+06 -517208 0)
(2.16228e+06 -568354 0)
(2.07071e+06 -623375 0)
(1.98857e+06 -682903 0)
(1.91108e+06 -746986 0)
(1.83415e+06 -815055 0)
(1.75428e+06 -885830 0)
(1.66855e+06 -957203 0)
(1.57491e+06 -1.02622e+06 0)
(1.47255e+06 -1.08926e+06 0)
(1.36214e+06 -1.14248e+06 0)
(6.90892e+06 2.04834e+06 0)
(4.74725e+06 901796 0)
(3.90173e+06 345295 0)
(3.37532e+06 47475.6 0)
(3.00548e+06 -126832 0)
(2.73422e+06 -240520 0)
(2.52888e+06 -324173 0)
(2.36864e+06 -393245 0)
(2.23961e+06 -455880 0)
(2.13214e+06 -516556 0)
(2.03917e+06 -577781 0)
(1.9553e+06 -640878 0)
(1.87612e+06 -706321 0)
(1.79792e+06 -773851 0)
(1.71758e+06 -842476 0)
(1.6326e+06 -910457 0)
(1.54128e+06 -975357 0)
(1.44299e+06 -1.03423e+06 0)
(1.33833e+06 -1.08401e+06 0)
(1.32357e+06 -1.47376e+06 0)
(1.16389e+06 -1.50023e+06 0)
(1.0077e+06 -1.49868e+06 0)
(862794 -1.47349e+06 0)
(733725 -1.43099e+06 0)
(622062 -1.3774e+06 0)
(527313 -1.31784e+06 0)
(447869 -1.25607e+06 0)
(381689 -1.19463e+06 0)
(326709 -1.13512e+06 0)
(281040 -1.07846e+06 0)
(243041 -1.02513e+06 0)
(211334 -975288 0)
(184781 -928932 0)
(162451 -885937 0)
(143587 -846120 0)
(127577 -809268 0)
(113922 -775159 0)
(102218 -743572 0)
(92137.2 -714295 0)
(83410.6 -687129 0)
(75819.8 -661891 0)
(69184.9 -638412 0)
(63358.3 -616541 0)
(58217.6 -596137 0)
(53661.8 -577076 0)
(49606.6 -559243 0)
(45981.6 -542537 0)
(42728.1 -526866 0)
(39796.3 -512147 0)
(37144.5 -498306 0)
(34737.1 -485274 0)
(32543.9 -472992 0)
(30539.1 -461403 0)
(28700.6 -450459 0)
(27009.2 -440115 0)
(25448.6 -430330 0)
(24004.3 -421066 0)
(22664 -412290 0)
(21416.8 -403972 0)
(20253 -396084 0)
(19164.2 -388600 0)
(18143 -381498 0)
(17182.8 -374756 0)
(16277.4 -368354 0)
(15421.7 -362276 0)
(14610.9 -356506 0)
(13840.4 -351027 0)
(13106.4 -345828 0)
(12405.3 -340896 0)
(11733.7 -336220 0)
(11088.7 -331793 0)
(10467 -327601 0)
(9865.84 -323638 0)
(9282.74 -319898 0)
(8715.08 -316374 0)
(8160.53 -313061 0)
(7616.26 -309952 0)
(7079.94 -307046 0)
(6549.01 -304338 0)
(6020.86 -301826 0)
(5492.87 -299510 0)
(4961.76 -297387 0)
(4424.5 -295458 0)
(3877.79 -293725 0)
(3317.38 -292187 0)
(2739.09 -290849 0)
(2137.95 -289715 0)
(1508.28 -288789 0)
(843.707 -288077 0)
(136.09 -287587 0)
(-623.396 -287327 0)
(-1445.53 -287309 0)
(-2343.05 -287543 0)
(-3331.03 -288044 0)
(-4428.57 -288827 0)
(-5657.73 -289910 0)
(-7045.8 -291312 0)
(-8625.94 -293054 0)
(-10438.3 -295161 0)
(-12534.3 -297656 0)
(-14974.8 -300566 0)
(-17836.2 -303913 0)
(-21212.6 -307721 0)
(-25219 -312002 0)
(-30001.4 -316763 0)
(-35733.5 -321984 0)
(-42625.6 -327615 0)
(-50933.9 -333555 0)
(-60943.9 -339621 0)
(-72967 -345517 0)
(-87298.5 -350784 0)
(-104145 -354757 0)
(-123526 -356547 0)
(-145078 -355079 0)
(-167922 -349281 0)
(-190618 -338427 0)
(1.30264e+06 -1.3917e+06 0)
(1.15666e+06 -1.41757e+06 0)
(1.01327e+06 -1.4199e+06 0)
(878733 -1.40169e+06 0)
(757090 -1.36769e+06 0)
(650094 -1.32287e+06 0)
(557783 -1.27157e+06 0)
(479142 -1.21715e+06 0)
(412652 -1.16205e+06 0)
(356659 -1.1079e+06 0)
(309563 -1.0557e+06 0)
(269927 -1.00606e+06 0)
(236505 -959263 0)
(208243 -915418 0)
(184261 -874494 0)
(163831 -836389 0)
(146355 -800954 0)
(131340 -768023 0)
(118382 -737418 0)
(107149 -708963 0)
(97365.7 -682486 0)
(88807.2 -657830 0)
(81286.8 -634845 0)
(74649.5 -613392 0)
(68766.4 -593346 0)
(63530 -574590 0)
(58850.3 -557021 0)
(54651.4 -540543 0)
(50869.7 -525069 0)
(47451.1 -510522 0)
(44349.9 -496831 0)
(41526.9 -483931 0)
(38948.5 -471764 0)
(36586.2 -460278 0)
(34415.1 -449424 0)
(32414.1 -439160 0)
(30564.3 -429446 0)
(28849.8 -420247 0)
(27256.3 -411528 0)
(25771.3 -403262 0)
(24384 -395420 0)
(23084.6 -387978 0)
(21864.7 -380913 0)
(20716.3 -374204 0)
(19632.8 -367833 0)
(18607.8 -361783 0)
(17636 -356038 0)
(16712 -350582 0)
(15831.2 -345403 0)
(14989.6 -340490 0)
(14183 -335830 0)
(13408.1 -331417 0)
(12660.9 -327238 0)
(11938.5 -323287 0)
(11237.8 -319557 0)
(10555.6 -316041 0)
(9889.37 -312735 0)
(9235.67 -309632 0)
(8591.83 -306730 0)
(7954.88 -304025 0)
(7321.78 -301514 0)
(6689.54 -299197 0)
(6054.37 -297072 0)
(5412.84 -295138 0)
(4761.2 -293398 0)
(4094.66 -291852 0)
(3408.53 -290503 0)
(2697.31 -289354 0)
(1954.72 -288410 0)
(1173.77 -287676 0)
(345.581 -287160 0)
(-539.39 -286868 0)
(-1492.71 -286811 0)
(-2527.97 -286999 0)
(-3661.07 -287444 0)
(-4912.15 -288161 0)
(-6304.13 -289163 0)
(-7865.23 -290469 0)
(-9629.37 -292095 0)
(-11637.3 -294061 0)
(-13940.5 -296386 0)
(-16599.5 -299088 0)
(-19689.3 -302184 0)
(-23300.7 -305685 0)
(-27543 -309592 0)
(-32552.9 -313897 0)
(-38489 -318563 0)
(-45538.1 -323521 0)
(-53921.7 -328654 0)
(-63874.7 -333765 0)
(-75639.4 -338556 0)
(-89422.3 -342595 0)
(-105331 -345290 0)
(-123298 -345890 0)
(-142933 -343542 0)
(-163457 -337450 0)
(-183697 -327123 0)
(1.28313e+06 -1.31641e+06 0)
(1.14869e+06 -1.34176e+06 0)
(1.01626e+06 -1.34707e+06 0)
(890928 -1.33447e+06 0)
(776202 -1.30753e+06 0)
(673862 -1.27022e+06 0)
(584282 -1.22619e+06 0)
(506884 -1.17844e+06 0)
(440568 -1.12921e+06 0)
(384024 -1.0801e+06 0)
(335920 -1.03219e+06 0)
(295009 -986157 0)
(260178 -942382 0)
(230462 -901055 0)
(205039 -862233 0)
(183217 -825881 0)
(164418 -791914 0)
(148161 -760211 0)
(134046 -730640 0)
(121739 -703055 0)
(110965 -677316 0)
(101493 -653285 0)
(93132.2 -630832 0)
(85721.6 -609835 0)
(79127.4 -590179 0)
(73236.6 -571760 0)
(67954.3 -554482 0)
(63200.1 -538257 0)
(58905.9 -523003 0)
(55013.9 -508648 0)
(51474.5 -495126 0)
(48245.5 -482374 0)
(45290.3 -470338 0)
(42577.6 -458968 0)
(40080.4 -448218 0)
(37775 -438046 0)
(35640.9 -428414 0)
(33660.1 -419288 0)
(31816.9 -410635 0)
(30097.5 -402428 0)
(28489.5 -394639 0)
(26982 -387245 0)
(25565.5 -380224 0)
(24231.1 -373555 0)
(22971.2 -367220 0)
(21778.6 -361202 0)
(20647.2 -355486 0)
(19571 -350056 0)
(18544.7 -344901 0)
(17563.6 -340009 0)
(16623.1 -335369 0)
(15719.3 -330974 0)
(14847.8 -326810 0)
(14005 -322873 0)
(13187.4 -319154 0)
(12391.6 -315648 0)
(11614.5 -312350 0)
(10852.2 -309254 0)
(10101.7 -306357 0)
(9359.62 -303655 0)
(8622.51 -301146 0)
(7887 -298828 0)
(7148.83 -296701 0)
(6404.18 -294763 0)
(5648.88 -293016 0)
(4877.62 -291460 0)
(4085.26 -290098 0)
(3265.78 -288934 0)
(2412.37 -287970 0)
(1517.49 -287213 0)
(571.562 -286667 0)
(-435.544 -286341 0)
(-1516.09 -286242 0)
(-2684.37 -286381 0)
(-3956.95 -286766 0)
(-5354.8 -287411 0)
(-6901.44 -288329 0)
(-8625.68 -289533 0)
(-10561.8 -291037 0)
(-12750.6 -292857 0)
(-15243.3 -295006 0)
(-18099.2 -297496 0)
(-21390.9 -300337 0)
(-25205.1 -303531 0)
(-29644.5 -307067 0)
(-34835.4 -310925 0)
(-40920.6 -315057 0)
(-48063.9 -319378 0)
(-56453.6 -323759 0)
(-66279.7 -328001 0)
(-77725.4 -331813 0)
(-90927.4 -334797 0)
(-105921 -336431 0)
(-122584 -336089 0)
(-140530 -333092 0)
(-159074 -326848 0)
(-177256 -317022 0)
(1.26473e+06 -1.24682e+06 0)
(1.14014e+06 -1.27176e+06 0)
(1.01719e+06 -1.27946e+06 0)
(900043 -1.27142e+06 0)
(791716 -1.25038e+06 0)
(693926 -1.21952e+06 0)
(607244 -1.1819e+06 0)
(531407 -1.14015e+06 0)
(465645 -1.09632e+06 0)
(408938 -1.05196e+06 0)
(360188 -1.00814e+06 0)
(318325 -965601 0)
(282365 -924789 0)
(251434 -885966 0)
(224771 -849254 0)
(201725 -814682 0)
(181744 -782215 0)
(164360 -751782 0)
(149184 -723284 0)
(135885 -696612 0)
(124186 -671649 0)
(113857 -648281 0)
(104701 -626396 0)
(96556.7 -605888 0)
(89284 -586653 0)
(82766.5 -568599 0)
(76904.9 -551638 0)
(71615.2 -535688 0)
(66825.3 -520676 0)
(62474.1 -506533 0)
(58509 -493197 0)
(54884.5 -480610 0)
(51561.6 -468720 0)
(48506.5 -457479 0)
(45689.9 -446844 0)
(43086.1 -436775 0)
(40672.8 -427235 0)
(38430.5 -418191 0)
(36341.7 -409613 0)
(34391.3 -401473 0)
(32565.7 -393745 0)
(30853 -386405 0)
(29242.4 -379433 0)
(27724.3 -372809 0)
(26289.9 -366514 0)
(24931.6 -360533 0)
(23642.4 -354850 0)
(22415.4 -349451 0)
(21245 -344323 0)
(20125.8 -339456 0)
(19052.6 -334838 0)
(18021.1 -330462 0)
(17026.2 -326316 0)
(16064.1 -322394 0)
(15130.7 -318689 0)
(14222.3 -315195 0)
(13335.2 -311907 0)
(12465.3 -308818 0)
(11609.1 -305927 0)
(10762.9 -303229 0)
(9922.83 -300722 0)
(9085.16 -298404 0)
(8245.17 -296274 0)
(7398.67 -294332 0)
(6541.12 -292577 0)
(5666.7 -291012 0)
(4769.86 -289637 0)
(3844.11 -288455 0)
(2882.14 -287471 0)
(1875.93 -286688 0)
(815.313 -286111 0)
(-310.384 -285748 0)
(-1513.98 -285605 0)
(-2810.36 -285690 0)
(-4216.59 -286013 0)
(-5754.24 -286583 0)
(-7447.21 -287412 0)
(-9324.58 -288509 0)
(-11420.7 -289888 0)
(-13775.9 -291557 0)
(-16440.7 -293526 0)
(-19472.4 -295803 0)
(-22940.8 -298388 0)
(-26927.6 -301276 0)
(-31528.2 -304449 0)
(-36858.2 -307875 0)
(-43044.3 -311495 0)
(-50228.4 -315217 0)
(-58568.3 -318906 0)
(-68214.6 -322362 0)
(-79301.4 -325311 0)
(-91910.9 -327390 0)
(-106027 -328147 0)
(-121498 -327058 0)
(-137954 -323586 0)
(-154797 -317286 0)
(-171236 -307929 0)
(1.24719e+06 -1.18212e+06 0)
(1.13111e+06 -1.20676e+06 0)
(1.01644e+06 -1.21641e+06 0)
(906595 -1.21215e+06 0)
(804170 -1.19608e+06 0)
(710765 -1.17079e+06 0)
(627057 -1.13882e+06 0)
(553005 -1.10246e+06 0)
(488092 -1.06359e+06 0)
(431541 -1.02365e+06 0)
(382455 -983722 0)
(339927 -944544 0)
(303092 -906619 0)
(271167 -870263 0)
(243453 -835654 0)
(219343 -802871 0)
(198314 -771927 0)
(179919 -742790 0)
(163777 -715398 0)
(149565 -689671 0)
(137010 -665519 0)
(125879 -642847 0)
(115977 -621561 0)
(107139 -601570 0)
(99221.4 -582785 0)
(92105.9 -565121 0)
(85689.6 -548500 0)
(79885.1 -532848 0)
(74617.4 -518097 0)
(69822.4 -504183 0)
(65444.6 -491050 0)
(61436 -478643 0)
(57755.2 -466912 0)
(54366.2 -455814 0)
(51237.6 -445305 0)
(48341.9 -435350 0)
(45655.2 -425912 0)
(43156.2 -416959 0)
(40826.3 -408464 0)
(38648.9 -400398 0)
(36609.2 -392737 0)
(34694.3 -385458 0)
(32892.5 -378541 0)
(31193.1 -371967 0)
(29586.6 -365718 0)
(28064.6 -359777 0)
(26619.4 -354132 0)
(25243.5 -348766 0)
(23930.5 -343669 0)
(22674.6 -338829 0)
(21470.1 -334237 0)
(20312.1 -329883 0)
(19195.1 -325757 0)
(18114.8 -321853 0)
(17066.8 -318163 0)
(16046.8 -314682 0)
(15050.9 -311405 0)
(14074.5 -308325 0)
(13113.7 -305441 0)
(12164.4 -302747 0)
(11222.5 -300243 0)
(10283.9 -297926 0)
(9343.4 -295793 0)
(8396.46 -293846 0)
(7438.19 -292084 0)
(6462.29 -290508 0)
(5462.86 -289119 0)
(4432.96 -287919 0)
(3364.85 -286912 0)
(2250.09 -286103 0)
(1077.97 -285493 0)
(-162.609 -285091 0)
(-1484.93 -284901 0)
(-2904.32 -284931 0)
(-4438.2 -285187 0)
(-6108.56 -285680 0)
(-7939.44 -286416 0)
(-9959.96 -287405 0)
(-12204.1 -288654 0)
(-14711.6 -290170 0)
(-17531.5 -291958 0)
(-20718.9 -294020 0)
(-24340.1 -296351 0)
(-28471.5 -298939 0)
(-33200.7 -301757 0)
(-38632.2 -304767 0)
(-44877.7 -307903 0)
(-52057.9 -311066 0)
(-60303.7 -314119 0)
(-69731.3 -316870 0)
(-80435.1 -319061 0)
(-92455.5 -320368 0)
(-105742 -320398 0)
(-120127 -318718 0)
(-135264 -314901 0)
(-150638 -308610 0)
(-165588 -299691 0)
(1.23031e+06 -1.12166e+06 0)
(1.12166e+06 -1.14612e+06 0)
(1.01429e+06 -1.15739e+06 0)
(910993 -1.1563e+06 0)
(814005 -1.14447e+06 0)
(724788 -1.12399e+06 0)
(644065 -1.097e+06 0)
(571947 -1.0655e+06 0)
(508112 -1.03117e+06 0)
(451977 -995351 0)
(402819 -959084 0)
(359875 -923122 0)
(322394 -887993 0)
(289676 -854053 0)
(261088 -821523 0)
(236066 -790525 0)
(214120 -761114 0)
(194823 -733291 0)
(177810 -707029 0)
(162765 -682274 0)
(149419 -658958 0)
(137544 -637010 0)
(126945 -616351 0)
(117453 -596903 0)
(108926 -578591 0)
(101242 -561340 0)
(94296.5 -545080 0)
(87999 -529746 0)
(82272.3 -515274 0)
(77049.5 -501608 0)
(72272.9 -488693 0)
(67892.3 -476479 0)
(63864.1 -464921 0)
(60150.2 -453977 0)
(56717.6 -443606 0)
(53537.1 -433774 0)
(50583.1 -424447 0)
(47832.9 -415595 0)
(45266.6 -407190 0)
(42866.4 -399205 0)
(40616.5 -391618 0)
(38502.9 -384406 0)
(36512.8 -377550 0)
(34634.9 -371031 0)
(32858.8 -364831 0)
(31175.4 -358936 0)
(29576.3 -353332 0)
(28053.2 -348004 0)
(26599.5 -342941 0)
(25208.5 -338132 0)
(23874.1 -333566 0)
(22591.2 -329237 0)
(21353.4 -325134 0)
(20156.2 -321249 0)
(18994.8 -317576 0)
(17864.4 -314110 0)
(16760.9 -310845 0)
(15679.1 -307776 0)
(14614.9 -304899 0)
(13563.8 -302211 0)
(12521.4 -299710 0)
(11483.1 -297393 0)
(10443.5 -295259 0)
(9397.63 -293307 0)
(8340.28 -291537 0)
(7264.72 -289949 0)
(6164.71 -288546 0)
(5032.91 -287327 0)
(3861.2 -286297 0)
(2640.8 -285459 0)
(1360.5 -284815 0)
(8.89332 -284372 0)
(-1427.69 -284133 0)
(-2964.88 -284105 0)
(-4620.34 -284294 0)
(-6416.25 -284706 0)
(-8376.64 -285347 0)
(-10530.4 -286224 0)
(-12910.9 -287342 0)
(-15556.7 -288704 0)
(-18515.5 -290310 0)
(-21839.5 -292159 0)
(-25591.2 -294239 0)
(-29841.3 -296534 0)
(-34669.6 -299010 0)
(-40169.8 -301624 0)
(-46438.9 -304303 0)
(-53578.6 -306947 0)
(-61695.7 -309421 0)
(-70877.6 -311540 0)
(-81186.3 -313069 0)
(-92631.2 -313716 0)
(-105139 -313146 0)
(-118536 -311000 0)
(-132507 -306935 0)
(-146601 -300697 0)
(-160268 -292184 0)
(-211403 -322570 0)
(-228722 -302681 0)
(-241654 -280335 0)
(-250043 -257153 0)
(-254308 -234434 0)
(-255164 -213045 0)
(-253392 -193434 0)
(-249710 -175777 0)
(-244713 -160056 0)
(-238867 -146151 0)
(-232521 -133892 0)
(-225922 -123085 0)
(-219250 -113554 0)
(-212629 -105133 0)
(-206136 -97668.7 0)
(-199825 -91033.2 0)
(-193729 -85114.1 0)
(-187863 -79815.4 0)
(-182238 -75056.1 0)
(-176850 -70763.3 0)
(-171698 -66879.1 0)
(-166774 -63352.5 0)
(-162070 -60140 0)
(-157577 -57205.3 0)
(-153283 -54514.4 0)
(-149179 -52040.9 0)
(-145254 -49760.8 0)
(-141500 -47653.6 0)
(-137906 -45701.8 0)
(-134463 -43888.4 0)
(-131163 -42200.6 0)
(-127998 -40626.1 0)
(-124960 -39154.4 0)
(-122043 -37776.5 0)
(-119239 -36483.2 0)
(-116543 -35267.6 0)
(-113948 -34123 0)
(-111449 -33043.7 0)
(-109042 -32024.7 0)
(-106721 -31060.6 0)
(-104481 -30147.4 0)
(-102321 -29281.6 0)
(-100233 -28459.3 0)
(-98215.9 -27677.4 0)
(-96265.6 -26933.2 0)
(-94379.1 -26224.1 0)
(-92553.8 -25547.9 0)
(-90785.9 -24902 0)
(-89073.3 -24284.7 0)
(-87413.4 -23694.2 0)
(-85804 -23128.7 0)
(-84243.3 -22587 0)
(-82728.3 -22067.2 0)
(-81257.4 -21568.3 0)
(-79828.9 -21089 0)
(-78440.9 -20628.3 0)
(-77092.3 -20185.2 0)
(-75780.6 -19758.5 0)
(-74504.8 -19347.5 0)
(-73263.5 -18951.3 0)
(-72055.2 -18569.2 0)
(-70879.3 -18200.5 0)
(-69733.6 -17844.4 0)
(-68617.4 -17500.4 0)
(-67529.9 -17167.9 0)
(-66469.6 -16846.3 0)
(-65435.6 -16535 0)
(-64427.1 -16233.7 0)
(-63443.2 -15941.8 0)
(-62483.3 -15659.1 0)
(-61546 -15385 0)
(-60630.8 -15119.1 0)
(-59737 -14861.1 0)
(-58864 -14610.7 0)
(-58011.1 -14367.6 0)
(-57177.4 -14131.5 0)
(-56362.4 -13902 0)
(-55565.5 -13678.9 0)
(-54786.2 -13461.9 0)
(-54024.2 -13250.9 0)
(-53278.4 -13045.6 0)
(-52548.6 -12845.7 0)
(-51834.3 -12651.1 0)
(-51135.1 -12461.5 0)
(-50450.7 -12276.9 0)
(-49780.2 -12096.9 0)
(-49123.5 -11921.4 0)
(-48480.3 -11750.4 0)
(-47849.9 -11583.5 0)
(-47232.2 -11420.7 0)
(-46626.7 -11261.8 0)
(-46033.1 -11106.8 0)
(-45451.3 -10955.4 0)
(-44880.6 -10807.5 0)
(-44320.8 -10663.1 0)
(-43771.7 -10522 0)
(-43233 -10384.1 0)
(-42704.7 -10249.3 0)
(-42186 -10117.6 0)
(-41676.8 -9988.7 0)
(-41177.1 -9862.66 0)
(-40686.4 -9739.37 0)
(-40204.8 -9618.76 0)
(-39731.7 -9500.7 0)
(-39267 -9385.13 0)
(-38810.6 -9272 0)
(-38362.2 -9161.22 0)
(-37921.8 -9052.76 0)
(-37488.8 -8946.48 0)
(-37063.4 -8842.37 0)
(-36645.2 -8740.36 0)
(-36234.1 -8640.38 0)