/*--------------------------------*- C++ -*----------------------------------*\
  =========                 |
  \\      /  F ield         | OpenFOAM: The Open Source CFD Toolbox
   \\    /   O peration     | Website:  https://openfoam.org
    \\  /    A nd           | Version:  7
     \\/     M anipulation  |
\*---------------------------------------------------------------------------*/
FoamFile
{
    version     2.0;
    format      ascii;
    class       volVectorField;
    location    "0.0436581";
    object      EAirTot;
}
// * * * * * * * * * * * * * * * * * * * * * * * * * * * * * * * * * * * * * //

dimensions      [1 1 -3 0 0 -1 0];

internalField   nonuniform List<vector> 
58002
(
(-13.6196 75.0639 0)
(-38.5475 103.087 0)
(-56.932 154.82 0)
(-62.0181 230.689 0)
(-41.5932 328.859 0)
(19.7425 439.285 0)
(134.287 538.901 0)
(302.201 593.468 0)
(506.902 568.641 0)
(720.775 442.165 0)
(916.881 205.664 0)
(1076.68 -143.509 0)
(1189.74 -610.81 0)
(1249.03 -1207.44 0)
(1246.57 -1947.64 0)
(1171.97 -2843.31 0)
(1013.84 -3898.15 0)
(763.285 -5103.29 0)
(417.787 -6435.43 0)
(-16.1438 -7858.12 0)
(-522.533 -9325.82 0)
(-1078.03 -10789.5 0)
(-1655.78 -12203 0)
(-2229.48 -13527.8 0)
(-2776.89 -14736.2 0)
(-3281.73 -15812.2 0)
(-3734 -16750.2 0)
(-4129.53 -17553.2 0)
(-4468.54 -18230.2 0)
(-4754.39 -18793.6 0)
(-4984.96 -19244.1 0)
(-5189.7 -19638.9 0)
(-5402.8 -20047.2 0)
(-5624.62 -20469.5 0)
(-5855.61 -20906.6 0)
(-6096.27 -21359.3 0)
(-6347.1 -21828.3 0)
(-6608.68 -22314.6 0)
(-6881.59 -22819 0)
(-7166.45 -23342.5 0)
(-7463.97 -23886.3 0)
(-7774.85 -24451.4 0)
(-8099.88 -25039.2 0)
(-8439.9 -25651 0)
(-8795.81 -26288.2 0)
(-9168.56 -26952.4 0)
(-9559.21 -27645.3 0)
(-9968.87 -28368.8 0)
(-10398.6 -29124.7 0)
(-10850.1 -29915.7 0)
(-11324.4 -30743.9 0)
(-11823.3 -31612 0)
(-12348.4 -32522.9 0)
(-12901.5 -33479.8 0)
(-13484.6 -34486.3 0)
(-14099.8 -35546.1 0)
(-14749.6 -36663.8 0)
(-15436.5 -37844 0)
(-16163.5 -39092.2 0)
(-16933.6 -40414.3 0)
(-17750.4 -41817.2 0)
(-18617.7 -43308.3 0)
(-19539.9 -44896.4 0)
(-20521.5 -46590.8 0)
(-21568.3 -48403.3 0)
(-22686 -50346.2 0)
(-23881.6 -52434.3 0)
(-25162.6 -54684.5 0)
(-26537.8 -57116.6 0)
(-28017.3 -59753.5 0)
(-29612.7 -62622.5 0)
(-31337.2 -65755.5 0)
(-33206.5 -69191 0)
(-35239.2 -72975.2 0)
(-37456.9 -77163.9 0)
(-39886.2 -81825.5 0)
(-42559.2 -87044.9 0)
(-45515.2 -92927.6 0)
(-48804 -99607.4 0)
(-52488.8 -107256 0)
(-56651.7 -116096 0)
(-61402.3 -126422 0)
(-66890.4 -138630 0)
(-73326.7 -153262 0)
(-81018.3 -171081 0)
(-90430.8 -193181 0)
(-102300 -221182 0)
(-117851 -257554 0)
(-139242 -306205 0)
(-170529 -373562 0)
(-219948 -470676 0)
(-306032 -617599 0)
(-478030 -853627 0)
(-915432 -1.26773e+06 0)
(-2.67985e+06 -2.13293e+06 0)
(-13.6134 75.0764 0)
(-38.5266 103.1 0)
(-56.8901 154.831 0)
(-61.9461 230.687 0)
(-41.4846 328.822 0)
(19.8794 439.173 0)
(134.41 538.663 0)
(302.222 593.062 0)
(506.683 568.061 0)
(720.135 441.448 0)
(915.587 204.883 0)
(1074.4 -144.262 0)
(1185.99 -611.414 0)
(1243.06 -1207.7 0)
(1237.32 -1947.22 0)
(1157.99 -2841.66 0)
(993.326 -3894.43 0)
(734.134 -5096.35 0)
(377.721 -6423.85 0)
(-69.3544 -7840.35 0)
(-590.846 -9300.32 0)
(-1162.91 -10755 0)
(-1758.07 -12158.5 0)
(-2349.33 -13473 0)
(-2913.79 -14671 0)
(-3434.65 -15737.2 0)
(-3901.53 -16666.1 0)
(-4310.03 -17460.9 0)
(-4660.33 -18130.7 0)
(-4955.81 -18688 0)
(-5194.23 -19133.5 0)
(-5406 -19523.8 0)
(-5626.48 -19927.4 0)
(-5856.04 -20344.8 0)
(-6095.18 -20776.7 0)
(-6344.39 -21223.9 0)
(-6604.24 -21687.1 0)
(-6875.31 -22167.3 0)
(-7158.22 -22665.2 0)
(-7453.65 -23181.9 0)
(-7762.33 -23718.5 0)
(-8085.02 -24276 0)
(-8422.55 -24855.7 0)
(-8775.82 -25458.9 0)
(-9145.79 -26087 0)
(-9533.49 -26741.6 0)
(-9940.04 -27424.3 0)
(-10366.6 -28136.9 0)
(-10814.5 -28881.2 0)
(-11285.2 -29659.7 0)
(-11780.3 -30474.7 0)
(-12301.3 -31328.7 0)
(-12850.2 -32224.5 0)
(-13428.8 -33165.2 0)
(-14039.5 -34154.3 0)
(-14684.5 -35195.5 0)
(-15366.5 -36293.1 0)
(-16088.3 -37451.7 0)
(-16853.3 -38676.5 0)
(-17664.8 -39973.4 0)
(-18526.8 -41348.8 0)
(-19443.6 -42810.3 0)
(-20420.2 -44366 0)
(-21461.8 -46025.2 0)
(-22574.9 -47799 0)
(-23766.3 -49699.6 0)
(-25044 -51741.3 0)
(-26416.8 -53940.1 0)
(-27895.3 -56315.2 0)
(-29491.5 -58888.9 0)
(-31219.3 -61687.2 0)
(-33094.9 -64740.8 0)
(-35137.9 -68086.6 0)
(-37371.3 -71768.9 0)
(-39822.9 -75840.9 0)
(-42526.6 -80368 0)
(-45524.5 -85430.7 0)
(-48868.8 -91129 0)
(-52626.5 -97589.1 0)
(-56884.3 -104972 0)
(-61756.2 -113486 0)
(-67396.9 -123403 0)
(-74020.5 -135088 0)
(-81931.3 -149033 0)
(-91577.1 -165919 0)
(-103639 -186711 0)
(-119195 -212798 0)
(-140022 -246234 0)
(-169209 -290129 0)
(-212413 -349290 0)
(-280663 -431210 0)
(-397144 -547342 0)
(-615170 -712626 0)
(-1.06724e+06 -926922 0)
(-2.01769e+06 -1.00321e+06 0)
(-13.6071 75.0873 0)
(-38.5057 103.111 0)
(-56.8482 154.84 0)
(-61.8741 230.684 0)
(-41.3761 328.784 0)
(20.0162 439.061 0)
(134.534 538.425 0)
(302.243 592.656 0)
(506.464 567.48 0)
(719.494 440.734 0)
(914.294 204.105 0)
(1072.13 -145.01 0)
(1182.24 -612.007 0)
(1237.09 -1207.93 0)
(1228.07 -1946.76 0)
(1144.03 -2839.93 0)
(972.867 -3890.57 0)
(705.076 -5089.19 0)
(337.818 -6411.93 0)
(-122.301 -7822.06 0)
(-658.757 -9274.08 0)
(-1247.22 -10719.4 0)
(-1859.58 -12112.7 0)
(-2468.18 -13416.5 0)
(-3049.45 -14603.9 0)
(-3586.09 -15659.8 0)
(-4067.35 -16579.2 0)
(-4488.62 -17365.6 0)
(-4850.02 -18028 0)
(-5154.96 -18578.9 0)
(-5401.09 -19019.2 0)
(-5619.77 -19404.9 0)
(-5847.49 -19803.6 0)
(-6084.66 -20215.8 0)
(-6331.78 -20642.3 0)
(-6589.4 -21083.8 0)
(-6858.08 -21541 0)
(-7138.46 -22014.7 0)
(-7431.19 -22505.9 0)
(-7736.97 -23015.6 0)
(-8056.58 -23544.6 0)
(-8390.83 -24094.1 0)
(-8740.61 -24665.4 0)
(-9106.84 -25259.6 0)
(-9490.57 -25878.1 0)
(-9892.89 -26522.6 0)
(-10315 -27194.5 0)
(-10758.1 -27895.6 0)
(-11223.6 -28627.6 0)
(-11713.2 -29393.1 0)
(-12228.4 -30194.1 0)
(-12771.1 -31033.1 0)
(-13343.2 -31912.9 0)
(-13946.8 -32836.4 0)
(-14584.3 -33807 0)
(-15258.3 -34828.3 0)
(-15971.7 -35904.5 0)
(-16727.5 -37039.9 0)
(-17529.4 -38239.6 0)
(-18381.1 -39509.3 0)
(-19287 -40855.3 0)
(-20252 -42284.6 0)
(-21281.4 -43805.2 0)
(-22381.2 -45425.9 0)
(-23558.6 -47157.6 0)
(-24821.4 -49011.7 0)
(-26178.5 -51002 0)
(-27640.1 -53143.9 0)
(-29218.4 -55455.6 0)
(-30927.1 -57958.4 0)
(-32782.4 -60676.9 0)
(-34803.6 -63640.3 0)
(-37013.4 -66883.5 0)
(-39439.4 -70448.2 0)
(-42114.8 -74384.5 0)
(-45080.6 -78753.4 0)
(-48388 -83630.1 0)
(-52101.1 -89106.9 0)
(-56302.4 -95300.1 0)
(-61099.6 -102357 0)
(-66635.2 -110464 0)
(-73103.2 -119866 0)
(-80772.9 -130883 0)
(-90026.9 -143940 0)
(-101427 -159612 0)
(-115823 -178687 0)
(-134542 -202257 0)
(-159740 -231844 0)
(-195063 -269575 0)
(-246947 -318339 0)
(-327227 -381705 0)
(-458465 -462665 0)
(-683635 -557244 0)
(-1.07283e+06 -626609 0)
(-1.63439e+06 -484520 0)
(-13.6009 75.0981 0)
(-38.4848 103.123 0)
(-56.8063 154.849 0)
(-61.8022 230.681 0)
(-41.2676 328.746 0)
(20.1528 438.948 0)
(134.657 538.187 0)
(302.263 592.249 0)
(506.243 566.901 0)
(718.854 440.02 0)
(913 203.331 0)
(1069.86 -145.752 0)
(1178.49 -612.587 0)
(1231.13 -1208.14 0)
(1218.84 -1946.25 0)
(1130.11 -2838.12 0)
(952.458 -3886.58 0)
(676.114 -5081.8 0)
(298.081 -6399.66 0)
(-174.977 -7803.25 0)
(-726.255 -9247.1 0)
(-1330.94 -10682.9 0)
(-1960.3 -12065.6 0)
(-2585.98 -13358.3 0)
(-3183.83 -14534.7 0)
(-3736 -15580.1 0)
(-4231.4 -16489.8 0)
(-4665.22 -17267.4 0)
(-5037.52 -17922.1 0)
(-5351.75 -18466.4 0)
(-5605.44 -18901.3 0)
(-5830.9 -19282.1 0)
(-6065.74 -19675.7 0)
(-6310.36 -20082.7 0)
(-6565.31 -20503.5 0)
(-6831.15 -20939 0)
(-7108.5 -21390 0)
(-7397.98 -21857.1 0)
(-7700.32 -22341.3 0)
(-8016.23 -22843.5 0)
(-8346.54 -23364.6 0)
(-8692.09 -23905.9 0)
(-9053.83 -24468.2 0)
(-9432.73 -25053.1 0)
(-9829.9 -25661.7 0)
(-10246.5 -26295.5 0)
(-10683.7 -26956.1 0)
(-11143 -27645.2 0)
(-11625.7 -28364.3 0)
(-12133.7 -29116.1 0)
(-12668.6 -29902.4 0)
(-13232.3 -30725.6 0)
(-13826.9 -31588.5 0)
(-14454.8 -32493.8 0)
(-15118.4 -33444.9 0)
(-15820.6 -34445.1 0)
(-16564.4 -35498.4 0)
(-17353.2 -36609.2 0)
(-18190.8 -37782.2 0)
(-19081.5 -39022.9 0)
(-20030 -40337.3 0)
(-21041.4 -41732 0)
(-22121.9 -43214.9 0)
(-23277.8 -44794.2 0)
(-24517.3 -46480.2 0)
(-25848.7 -48283.9 0)
(-27282.2 -50218.3 0)
(-28829.2 -52297.9 0)
(-30503.1 -54540 0)
(-32319.6 -56964.6 0)
(-34297 -59594.7 0)
(-36456.9 -62457.7 0)
(-38825.5 -65586.1 0)
(-41434.3 -69018.5 0)
(-44321.5 -72801.1 0)
(-47534.5 -76989.9 0)
(-51132.5 -81653.3 0)
(-55190.1 -86874.6 0)
(-59803.4 -92757.8 0)
(-65098.2 -99432.7 0)
(-71240.6 -107063 0)
(-78457 -115856 0)
(-87060.2 -126080 0)
(-97492.7 -138080 0)
(-110398 -152306 0)
(-126738 -169345 0)
(-147988 -189950 0)
(-176486 -215065 0)
(-216060 -245785 0)
(-273149 -283104 0)
(-358840 -327039 0)
(-492227 -373993 0)
(-703972 -409260 0)
(-1.02785e+06 -388340 0)
(-1.41584e+06 -208451 0)
(-13.5946 75.1089 0)
(-38.4639 103.134 0)
(-56.7645 154.858 0)
(-61.7303 230.677 0)
(-41.1592 328.708 0)
(20.2894 438.835 0)
(134.78 537.948 0)
(302.284 591.844 0)
(506.023 566.322 0)
(718.213 439.309 0)
(911.707 202.56 0)
(1067.58 -146.487 0)
(1174.75 -613.154 0)
(1225.18 -1208.33 0)
(1209.62 -1945.7 0)
(1116.2 -2836.23 0)
(932.102 -3882.46 0)
(647.249 -5074.2 0)
(258.515 -6387.05 0)
(-227.375 -7783.93 0)
(-793.33 -9219.39 0)
(-1414.05 -10645.3 0)
(-2060.18 -12017.2 0)
(-2702.72 -13298.6 0)
(-3316.88 -14463.6 0)
(-3884.33 -15498.1 0)
(-4393.62 -16397.7 0)
(-4839.77 -17166.2 0)
(-5222.76 -17813 0)
(-5546.1 -18350.5 0)
(-5807.21 -18779.8 0)
(-6039.31 -19155.7 0)
(-6281.11 -19544 0)
(-6533.03 -19945.4 0)
(-6795.65 -20360.4 0)
(-7069.54 -20789.8 0)
(-7355.35 -21234.2 0)
(-7653.74 -21694.4 0)
(-7965.46 -22171.4 0)
(-8291.27 -22665.8 0)
(-8632.02 -23178.8 0)
(-8988.6 -23711.4 0)
(-9362.01 -24264.6 0)
(-9753.27 -24839.6 0)
(-10163.5 -25437.8 0)
(-10594 -26060.6 0)
(-11046 -26709.3 0)
(-11521.1 -27385.8 0)
(-12020.5 -28091.6 0)
(-12546.3 -28828.9 0)
(-13100.3 -29599.8 0)
(-13684.4 -30406.5 0)
(-14300.9 -31251.6 0)
(-14952.3 -32137.8 0)
(-15641.2 -33068.3 0)
(-16370.6 -34046.2 0)
(-17143.9 -35075.6 0)
(-17964.6 -36160.3 0)
(-18836.8 -37305 0)
(-19765 -38514.9 0)
(-20754.4 -39795.7 0)
(-21810.7 -41153.7 0)
(-22940.2 -42596.2 0)
(-24150 -44131.2 0)
(-25448.9 -45768.3 0)
(-26846.1 -47517.8 0)
(-28352.7 -49391.9 0)
(-29981.1 -51404.3 0)
(-31746.1 -53570.9 0)
(-33664.9 -55910.4 0)
(-35757.9 -58444.2 0)
(-38048.9 -61197.3 0)
(-40567.1 -64199.5 0)
(-43347.5 -67486 0)
(-46432.7 -71098.5 0)
(-49875.5 -75087.2 0)
(-53742.2 -79512.7 0)
(-58116.1 -84448.1 0)
(-63104.6 -89983.2 0)
(-68847.9 -96228.5 0)
(-75531 -103320 0)
(-83404 -111425 0)
(-92810.8 -120755 0)
(-104233 -131566 0)
(-118362 -144176 0)
(-136213 -158956 0)
(-159307 -176319 0)
(-189984 -196642 0)
(-231917 -220059 0)
(-290959 -245926 0)
(-376459 -271487 0)
(-503001 -288750 0)
(-691406 -277761 0)
(-964058 -196714 0)
(-1.31113e+06 -1914.81 0)
(-13.5884 75.1198 0)
(-38.443 103.145 0)
(-56.7226 154.867 0)
(-61.6584 230.674 0)
(-41.0509 328.669 0)
(20.4257 438.723 0)
(134.903 537.71 0)
(302.303 591.438 0)
(505.802 565.745 0)
(717.572 438.599 0)
(910.414 201.792 0)
(1065.31 -147.216 0)
(1171 -613.71 0)
(1219.23 -1208.5 0)
(1200.41 -1945.1 0)
(1102.33 -2834.26 0)
(911.799 -3878.2 0)
(618.485 -5066.38 0)
(219.124 -6374.1 0)
(-279.488 -7764.1 0)
(-859.969 -9190.96 0)
(-1496.53 -10606.8 0)
(-2159.22 -11967.6 0)
(-2818.36 -13237.2 0)
(-3448.57 -14390.6 0)
(-4031.03 -15413.9 0)
(-4553.96 -16303.1 0)
(-5012.2 -17062.3 0)
(-5405.67 -17700.9 0)
(-5737.93 -18231.4 0)
(-6006.3 -18654.9 0)
(-6244.9 -19025.6 0)
(-6493.5 -19408.5 0)
(-6752.57 -19804.2 0)
(-7022.67 -20213.1 0)
(-7304.43 -20636.1 0)
(-7598.5 -21073.8 0)
(-7905.6 -21526.9 0)
(-8226.47 -21996.3 0)
(-8561.93 -22482.7 0)
(-8912.85 -22987.3 0)
(-9280.19 -23510.8 0)
(-9664.95 -24054.5 0)
(-10068.2 -24619.4 0)
(-10491.2 -25206.7 0)
(-10935.2 -25818 0)
(-11401.6 -26454.5 0)
(-11891.9 -27117.9 0)
(-12407.5 -27809.6 0)
(-12950.6 -28531.9 0)
(-13523.1 -29286.7 0)
(-14127 -30076.1 0)
(-14764.7 -30902.6 0)
(-15438.8 -31768.8 0)
(-16152.1 -32677.7 0)
(-16907.8 -33632.4 0)
(-17709.4 -34636.4 0)
(-18560.8 -35693.7 0)
(-19466.2 -36808.7 0)
(-20430.6 -37986.1 0)
(-21459.3 -39231.4 0)
(-22558.4 -40550.5 0)
(-23734.8 -41950.4 0)
(-24996.1 -43438.3 0)
(-26351.7 -45023.4 0)
(-27811.5 -46715.2 0)
(-29387.4 -48525 0)
(-31092.9 -50465.4 0)
(-32943.9 -52551.2 0)
(-34959.2 -54799.3 0)
(-37160.7 -57229.2 0)
(-39574.4 -59863.7 0)
(-42231.9 -62729.5 0)
(-45171.3 -65857.9 0)
(-48438.9 -69285.6 0)
(-52092.2 -73056.4 0)
(-56203 -77222.4 0)
(-60861.7 -81845.6 0)
(-66184.4 -87000.4 0)
(-72321.9 -92776.1 0)
(-79472.2 -99278.9 0)
(-87901 -106636 0)
(-97970 -114995 0)
(-110179 -124526 0)
(-125234 -135408 0)
(-144149 -147810 0)
(-168401 -161820 0)
(-200179 -177311 0)
(-242755 -193615 0)
(-301006 -208838 0)
(-382037 -218370 0)
(-495625 -211797 0)
(-654119 -166815 0)
(-878432 -38465.8 0)
(-1.30825e+06 260651 0)
(4.64097e+06 -4.14542e+06 0)
(1.38184e+06 -2.44715e+06 0)
(705336 -1.67081e+06 0)
(509585 -1.25191e+06 0)
(454855 -1.00995e+06 0)
(453318 -867102 0)
(474234 -784713 0)
(504891 -742229 0)
(539277 -728297 0)
(573993 -736523 0)
(606545 -763303 0)
(634531 -806583 0)
(655200 -865053 0)
(665201 -937467 0)
(660541 -1.02197e+06 0)
(636839 -1.11531e+06 0)
(590065 -1.21214e+06 0)
(517868 -1.3046e+06 0)
(421293 -1.38295e+06 0)
(3.38002e+06 -1.98164e+06 0)
(1.67517e+06 -1.80282e+06 0)
(953792 -1.38914e+06 0)
(664337 -1.08926e+06 0)
(548993 -894600 0)
(509630 -772634 0)
(505830 -699979 0)
(519259 -661994 0)
(540737 -649781 0)
(565057 -657962 0)
(588692 -683284 0)
(608700 -723698 0)
(622147 -777709 0)
(625835 -843801 0)
(616263 -919885 0)
(589868 -1.00272e+06 0)
(543655 -1.08742e+06 0)
(476186 -1.16737e+06 0)
(388748 -1.23483e+06 0)
(2.64362e+06 -971625 0)
(1.69455e+06 -1.22391e+06 0)
(1.08194e+06 -1.07576e+06 0)
(770590 -897314 0)
(621965 -758997 0)
(556035 -664431 0)
(532628 -605588 0)
(531384 -574581 0)
(541405 -565583 0)
(556311 -574627 0)
(571851 -599061 0)
(584696 -637026 0)
(591812 -686999 0)
(590163 -747353 0)
(576670 -815925 0)
(548419 -889601 0)
(503165 -964024 0)
(440068 -1.03362e+06 0)
(360464 -1.09218e+06 0)
(2.22127e+06 -432632 0)
(1.6202e+06 -756542 0)
(1.12616e+06 -770831 0)
(831518 -694187 0)
(671903 -611209 0)
(590596 -546277 0)
(553251 -503444 0)
(540372 -481038 0)
(540713 -476361 0)
(547388 -487005 0)
(555760 -511068 0)
(562288 -547009 0)
(563919 -593398 0)
(557791 -648615 0)
(541187 -710544 0)
(511705 -776279 0)
(467646 -841975 0)
(408548 -902942 0)
(335700 -954163 0)
(2.016e+06 -44427.9 0)
(1.51605e+06 -375418 0)
(1.11485e+06 -491226 0)
(854835 -492822 0)
(700029 -458394 0)
(612911 -421966 0)
(567059 -395610 0)
(545678 -382556 0)
(538256 -382870 0)
(537993 -395645 0)
(540182 -419767 0)
(541245 -454082 0)
(538187 -497337 0)
(528337 -548008 0)
(509292 -604101 0)
(479053 -662967 0)
(436316 -721242 0)
(380858 -774979 0)
(313871 -820088 0)
(1.99968e+06 411222 0)
(1.38439e+06 -54232.1 0)
(1.0642e+06 -243435 0)
(848846 -301492 0)
(709300 -306136 0)
(623732 -294850 0)
(574051 -284069 0)
(547096 -280351 0)
(533804 -285908 0)
(527915 -301125 0)
(524919 -325626 0)
(521349 -358664 0)
(514347 -399210 0)
(501443 -445892 0)
(480515 -496885 0)
(449881 -549820 0)
(408529 -601773 0)
(356380 -649421 0)
(294507 -689401 0)
(307319 -1.43725e+06 0)
(185466 -1.46302e+06 0)
(64667 -1.46085e+06 0)
(-47030.9 -1.43511e+06 0)
(-144839 -1.39211e+06 0)
(-226993 -1.33807e+06 0)
(-293809 -1.27811e+06 0)
(-346749 -1.21597e+06 0)
(-387722 -1.1542e+06 0)
(-418676 -1.09438e+06 0)
(-441399 -1.03745e+06 0)
(-457442 -983858 0)
(-468101 -933783 0)
(-474444 -887211 0)
(-477336 -844016 0)
(-477475 -804014 0)
(-475423 -766991 0)
(-471629 -732722 0)
(-466454 -700987 0)
(-460187 -671572 0)
(-453060 -644277 0)
(-445259 -618919 0)
(-436932 -595329 0)
(-428201 -573352 0)
(-419160 -552850 0)
(-409888 -533697 0)
(-400446 -515778 0)
(-390884 -498991 0)
(-381242 -483244 0)
(-371550 -468454 0)
(-361836 -454546 0)
(-352117 -441452 0)
(-342408 -429110 0)
(-332723 -417467 0)
(-323070 -406471 0)
(-313455 -396079 0)
(-303882 -386248 0)
(-294356 -376942 0)
(-284877 -368127 0)
(-275446 -359773 0)
(-266062 -351850 0)
(-256725 -344335 0)
(-247433 -337204 0)
(-238183 -330435 0)
(-228972 -324009 0)
(-219798 -317909 0)
(-210658 -312119 0)
(-201545 -306622 0)
(-192457 -301408 0)
(-183390 -296462 0)
(-174339 -291776 0)
(-165302 -287339 0)
(-156269 -283140 0)
(-147238 -279173 0)
(-138202 -275430 0)
(-129157 -271905 0)
(-120099 -268594 0)
(-111018 -265489 0)
(-101908 -262589 0)
(-92765.2 -259890 0)
(-83581.2 -257390 0)
(-74352.6 -255088 0)
(-65066 -252982 0)
(-55716.9 -251073 0)
(-46300.3 -249363 0)
(-36801.8 -247852 0)
(-27216 -246544 0)
(-17533.6 -245444 0)
(-7745.47 -244556 0)
(2155.14 -243887 0)
(12184.8 -243445 0)
(22350.9 -243239 0)
(32664.3 -243280 0)
(43136.3 -243581 0)
(53774.9 -244156 0)
(64598.5 -245021 0)
(75615.4 -246197 0)
(86837.2 -247702 0)
(98274.7 -249561 0)
(109935 -251798 0)
(121834 -254442 0)
(133977 -257521 0)
(146371 -261061 0)
(159021 -265091 0)
(171927 -269631 0)
(185101 -274693 0)
(198548 -280272 0)
(212285 -286329 0)
(226368 -292788 0)
(240899 -299495 0)
(256096 -306194 0)
(272384 -312490 0)
(290558 -317810 0)
(312053 -321402 0)
(339250 -322376 0)
(375802 -319872 0)
(426481 -313259 0)
(287193 -1.28213e+06 0)
(178955 -1.30591e+06 0)
(70866.4 -1.30637e+06 0)
(-30526.6 -1.28651e+06 0)
(-120967 -1.25102e+06 0)
(-198502 -1.20486e+06 0)
(-262925 -1.15235e+06 0)
(-315100 -1.09684e+06 0)
(-356415 -1.04075e+06 0)
(-388413 -985676 0)
(-412589 -932646 0)
(-430292 -882239 0)
(-442687 -834743 0)
(-450758 -790249 0)
(-455319 -748726 0)
(-457039 -710066 0)
(-456466 -674118 0)
(-454045 -640709 0)
(-450135 -609660 0)
(-445032 -580791 0)
(-438971 -553930 0)
(-432146 -528914 0)
(-424713 -505592 0)
(-416800 -483824 0)
(-408509 -463483 0)
(-399924 -444452 0)
(-391112 -426624 0)
(-382130 -409903 0)
(-373021 -394202 0)
(-363821 -379441 0)
(-354560 -365550 0)
(-345261 -352462 0)
(-335942 -340119 0)
(-326619 -328467 0)
(-317301 -317459 0)
(-307999 -307050 0)
(-298719 -297201 0)
(-289466 -287874 0)
(-280244 -279038 0)
(-271053 -270662 0)
(-261896 -262718 0)
(-252772 -255181 0)
(-243681 -248029 0)
(-234622 -241241 0)
(-225592 -234797 0)
(-216589 -228681 0)
(-207613 -222876 0)
(-198656 -217367 0)
(-189717 -212142 0)
(-180793 -207188 0)
(-171879 -202495 0)
(-162974 -198055 0)
(-154069 -193855 0)
(-145161 -189889 0)
(-136245 -186151 0)
(-127317 -182633 0)
(-118374 -179333 0)
(-109404 -176242 0)
(-100405 -173359 0)
(-91370.3 -170680 0)
(-82294.2 -168204 0)
(-73172.8 -165930 0)
(-63993.4 -163856 0)
(-54751.8 -161982 0)
(-45443.6 -160312 0)
(-36055.1 -158845 0)
(-26581.1 -157586 0)
(-17013.3 -156539 0)
(-7342.82 -155710 0)
(2436.23 -155105 0)
(12339.6 -154732 0)
(22373.9 -154601 0)
(32549.2 -154723 0)
(42875.6 -155110 0)
(53360.3 -155777 0)
(64020.6 -156741 0)
(74863.5 -158021 0)
(85899.3 -159636 0)
(97137.9 -161611 0)
(108585 -163969 0)
(120257 -166738 0)
(132158 -169946 0)
(144295 -173620 0)
(156674 -177786 0)
(169301 -182464 0)
(182194 -187671 0)
(195370 -193405 0)
(208862 -199639 0)
(222756 -206319 0)
(237191 -213337 0)
(252436 -220520 0)
(268979 -227620 0)
(287675 -234318 0)
(309995 -240269 0)
(338305 -245185 0)
(376207 -248945 0)
(428526 -251454 0)
(269279 -1.1337e+06 0)
(172400 -1.15557e+06 0)
(75121.5 -1.15781e+06 0)
(-17203 -1.14245e+06 0)
(-100841 -1.11304e+06 0)
(-173819 -1.0735e+06 0)
(-235597 -1.02747e+06 0)
(-286606 -977888 0)
(-327815 -926997 0)
(-360421 -876377 0)
(-385658 -827083 0)
(-404683 -779775 0)
(-418529 -734830 0)
(-428091 -692425 0)
(-434127 -652605 0)
(-437270 -615331 0)
(-438047 -580508 0)
(-436893 -548011 0)
(-434164 -517701 0)
(-430154 -489428 0)
(-425104 -463046 0)
(-419210 -438416 0)
(-412634 -415403 0)
(-405509 -393882 0)
(-397943 -373736 0)
(-390025 -354858 0)
(-381828 -337149 0)
(-373412 -320519 0)
(-364826 -304887 0)
(-356110 -290176 0)
(-347296 -276320 0)
(-338412 -263256 0)
(-329478 -250926 0)
(-320512 -239281 0)
(-311528 -228273 0)
(-302538 -217859 0)
(-293549 -208002 0)
(-284568 -198664 0)
(-275601 -189815 0)
(-266651 -181425 0)
(-257720 -173467 0)
(-248810 -165915 0)
(-239921 -158749 0)
(-231052 -151947 0)
(-222204 -145491 0)
(-213374 -139362 0)
(-204561 -133547 0)
(-195761 -128029 0)
(-186972 -122797 0)
(-178192 -117838 0)
(-169417 -113142 0)
(-160646 -108701 0)
(-151869 -104502 0)
(-143086 -100540 0)
(-134292 -96807.9 0)
(-125483 -93299.5 0)
(-116655 -90010.6 0)
(-107799 -86934.8 0)
(-98911.5 -84069.5 0)
(-89987.6 -81411.9 0)
(-81021.1 -78960.2 0)
(-72008.9 -76713.7 0)
(-62938.7 -74670.7 0)
(-53806.9 -72832.7 0)
(-44609.5 -71201.3 0)
(-35333.2 -69778.1 0)
(-25973.6 -68566.9 0)
(-16522.7 -67572.2 0)
(-6972.61 -66799.8 0)
(2682.14 -66256.4 0)
(12456.4 -65950 0)
(22356 -65890.4 0)
(32390.1 -66088.8 0)
(42568 -66558.2 0)
(52895.8 -67312.8 0)
(63389.7 -68369.7 0)
(74055.5 -69747.3 0)
(84902.5 -71466.3 0)
(95939.5 -73549.4 0)
(107171 -76020.3 0)
(118613 -78906.8 0)
(130269 -82235.9 0)
(142147 -86034.8 0)
(154255 -90330.5 0)
(166599 -95144.2 0)
(179205 -100496 0)
(192098 -106392 0)
(205325 -112819 0)
(218987 -119752 0)
(233247 -127131 0)
(248399 -134870 0)
(264948 -142867 0)
(283741 -151043 0)
(306197 -159436 0)
(334575 -168330 0)
(372424 -178382 0)
(424978 -190296 0)
(253264 -990841 0)
(165962 -1.01094e+06 0)
(77937.8 -1.01435e+06 0)
(-6401.82 -1.00248e+06 0)
(-83811.8 -977993 0)
(-152389 -944033 0)
(-211398 -903612 0)
(-260958 -859313 0)
(-301713 -813169 0)
(-334571 -766693 0)
(-360532 -720943 0)
(-380578 -676626 0)
(-395615 -634180 0)
(-406448 -593850 0)
(-413774 -555746 0)
(-418187 -519885 0)
(-420189 -486223 0)
(-420198 -454679 0)
(-418565 -425149 0)
(-415579 -397515 0)
(-411481 -371655 0)
(-406472 -347450 0)
(-400714 -324782 0)
(-394346 -303541 0)
(-387479 -283621 0)
(-380207 -264924 0)
(-372608 -247361 0)
(-364744 -230846 0)
(-356669 -215304 0)
(-348427 -200663 0)
(-340053 -186861 0)
(-331577 -173836 0)
(-323023 -161536 0)
(-314411 -149910 0)
(-305757 -138914 0)
(-297076 -128507 0)
(-288376 -118652 0)
(-279666 -109313 0)
(-270954 -100460 0)
(-262243 -92063.6 0)
(-253538 -84097.8 0)
(-244841 -76538.6 0)
(-236154 -69364 0)
(-227477 -62553.7 0)
(-218810 -56089 0)
(-210153 -49953.4 0)
(-201505 -44132.1 0)
(-192863 -38609.2 0)
(-184225 -33373.1 0)
(-175590 -28412.1 0)
(-166954 -23715.8 0)
(-158318 -19275.8 0)
(-149672 -15080.8 0)
(-141015 -11124.6 0)
(-132344 -7400.52 0)
(-123654 -3902.63 0)
(-114944 -626.826 0)
(-106203 2433.27 0)
(-97428.8 5279.92 0)
(-88617.2 7915.92 0)
(-79762.1 10343 0)
(-70861 12561.5 0)
(-61902.1 14573.1 0)
(-52882 16376.4 0)
(-43797.4 17969.2 0)
(-34635.6 19350.1 0)
(-25392.5 20514.9 0)
(-16061.1 21459.1 0)
(-6633.68 22176.9 0)
(2894.24 22661.1 0)
(12536.8 22903.8 0)
(22299.1 22895 0)
(32189.3 22623.5 0)
(42216 22076.2 0)
(52384.1 21239 0)
(62708.8 20094.6 0)
(73194.8 18624.7 0)
(83850.6 16809 0)
(94683.6 14624.7 0)
(105698 12048.5 0)
(116908 9052.56 0)
(128317 5610.18 0)
(139933 1693.65 0)
(151765 -2724.85 0)
(163822 -7669.02 0)
(176133 -13163.9 0)
(188728 -19223.9 0)
(201662 -25854 0)
(215044 -33056.6 0)
(229045 -40821.5 0)
(243957 -49145.3 0)
(260263 -58062.1 0)
(278745 -67706.6 0)
(300680 -78458.2 0)
(328096 -91139.1 0)
(364371 -107279 0)
(415366 -128966 0)
(238887 -852689 0)
(159734 -871159 0)
(79684.1 -875321 0)
(2387.03 -866161 0)
(-69347.3 -845701 0)
(-133736 -816437 0)
(-189942 -780883 0)
(-237867 -741272 0)
(-277903 -699438 0)
(-310722 -656797 0)
(-337123 -614387 0)
(-357927 -572933 0)
(-373922 -532915 0)
(-385824 -494628 0)
(-394268 -458234 0)
(-399805 -423799 0)
(-402909 -391323 0)
(-403980 -360762 0)
(-403358 -332047 0)
(-401326 -305086 0)
(-398124 -279782 0)
(-393951 -256036 0)
(-388972 -233746 0)
(-383328 -212815 0)
(-377133 -193150 0)
(-370485 -174661 0)
(-363464 -157267 0)
(-356137 -140890 0)
(-348561 -125459 0)
(-340782 -110907 0)
(-332839 -97175.1 0)
(-324764 -84206 0)
(-316584 -71948.3 0)
(-308322 -60355.3 0)
(-299995 -49383.9 0)
(-291619 -38994.6 0)
(-283205 -29151.1 0)
(-274765 -19820.1 0)
(-266306 -10971.3 0)
(-257834 -2576.57 0)
(-249354 5389.53 0)
(-240870 12950.5 0)
(-232384 20127.7 0)
(-223899 26941 0)
(-215414 33408.7 0)
(-206930 39547.1 0)
(-198448 45370.5 0)
(-189963 50894.8 0)
(-181478 56131.1 0)
(-172988 61091.2 0)
(-164493 65785.1 0)
(-155992 70221.1 0)
(-147477 74410.3 0)
(-138948 78358.7 0)
(-130401 82073.1 0)
(-121832 85559 0)
(-113240 88820.5 0)
(-104616 91863.8 0)
(-95957.2 94691.1 0)
(-87259.3 97304.9 0)
(-78517.4 99707 0)
(-69729.1 101898 0)
(-60883.1 103878 0)
(-51976.7 105647 0)
(-43006.8 107202 0)
(-33961.5 108542 0)
(-24837.1 109661 0)
(-15627.2 110557 0)
(-6324.85 111222 0)
(3073.94 111649 0)
(12582.5 111831 0)
(22205 111757 0)
(31948.9 111416 0)
(41821.8 110796 0)
(51827.9 109880 0)
(61981 108654 0)
(72285 107098 0)
(82747.1 105192 0)
(93373.9 102913 0)
(104168 100239 0)
(115144 97142.1 0)
(126304 93594.5 0)
(137656 89568.4 0)
(149209 85034.4 0)
(160973 79966.2 0)
(172979 74333 0)
(185259 68110.6 0)
(197870 61277.5 0)
(210922 53802.9 0)
(224578 45651.1 0)
(239109 36751.9 0)
(254945 26955.9 0)
(272749 15951.1 0)
(293571 3080.14 0)
(319045 -12942.8 0)
(352041 -34565.8 0)
(398782 -66113 0)
(225925 -718543 0)
(153766 -735530 0)
(80630.9 -740165 0)
(9560.46 -733129 0)
(-57016.1 -715964 0)
(-117458 -690669 0)
(-170891 -659331 0)
(-217067 -623876 0)
(-256190 -585940 0)
(-288738 -546834 0)
(-315338 -507553 0)
(-336673 -468823 0)
(-353418 -431147 0)
(-366204 -394857 0)
(-375605 -360154 0)
(-382130 -327144 0)
(-386219 -295866 0)
(-388254 -266310 0)
(-388560 -238434 0)
(-387414 -212176 0)
(-385049 -187458 0)
(-381663 -164199 0)
(-377423 -142315 0)
(-372469 -121722 0)
(-366919 -102337 0)
(-360871 -84080.6 0)
(-354409 -66878.3 0)
(-347603 -50659.5 0)
(-340512 -35358.3 0)
(-333185 -20913.2 0)
(-325663 -7267.81 0)
(-317982 5630.96 0)
(-310170 17832 0)
(-302251 29379.7 0)
(-294247 40315.2 0)
(-286172 50676.5 0)
(-278043 60498.3 0)
(-269869 69812.8 0)
(-261661 78649.3 0)
(-253427 87034.9 0)
(-245171 94994.6 0)
(-236899 102551 0)
(-228614 109725 0)
(-220320 116536 0)
(-212017 123002 0)
(-203706 129139 0)
(-195390 134960 0)
(-187065 140482 0)
(-178731 145716 0)
(-170388 150672 0)
(-162034 155361 0)
(-153669 159790 0)
(-145287 163971 0)
(-136886 167910 0)
(-128464 171613 0)
(-120017 175085 0)
(-111546 178331 0)
(-103039 181357 0)
(-94496.9 184164 0)
(-85914.3 186755 0)
(-77287 189132 0)
(-68613 191295 0)
(-59881.7 193244 0)
(-51090.7 194979 0)
(-42237.3 196497 0)
(-33310.3 197797 0)
(-24306.6 198873 0)
(-15220.2 199721 0)
(-6044.9 200336 0)
(3222.67 200709 0)
(12595 200833 0)
(22075.6 200697 0)
(31671.1 200291 0)
(41388.1 199600 0)
(51229.9 198612 0)
(61209.3 197309 0)
(71329.3 195672 0)
(81595.8 193683 0)
(92014.5 191317 0)
(102587 188553 0)
(113327 185362 0)
(124236 181718 0)
(135320 177590 0)
(146590 172949 0)
(158055 167765 0)
(169745 162001 0)
(181692 155623 0)
(193951 148595 0)
(206624 140859 0)
(219857 132341 0)
(233883 122909 0)
(249053 112326 0)
(265878 100150 0)
(285111 85533.4 0)
(307810 66880.1 0)
(335720 41028.3 0)
(373599 927.374 0)
(408532 -302208 0)
(323511 -286561 0)
(256858 -267509 0)
(205401 -246770 0)
(165943 -225855 0)
(135756 -205815 0)
(112607 -187235 0)
(94777 -170384 0)
(80951.8 -155307 0)
(70137.8 -141923 0)
(61598.7 -130096 0)
(54779.1 -119650 0)
(49272.4 -110426 0)
(44776.1 -102269 0)
(41059.7 -95031.9 0)
(37953.5 -88595.6 0)
(35328.2 -82851.8 0)
(33085.3 -77708.4 0)
(31149.7 -73087.7 0)
(29461.9 -68919.1 0)
(27977.1 -65146.9 0)
(26659.5 -61721.5 0)
(25480.9 -58601.1 0)
(24419.3 -55750.3 0)
(23456 -53136.3 0)
(22576.6 -50733.5 0)
(21769.3 -48518.4 0)
(21024.5 -46471.3 0)
(20334.3 -44575.1 0)
(19691.5 -42813.5 0)
(19090.9 -41173.7 0)
(18527.7 -39644 0)
(17997.9 -38214.1 0)
(17498.3 -36875.3 0)
(17025.8 -35618.7 0)
(16577.8 -34437.6 0)
(16152.3 -33325.4 0)
(15747.4 -32276.7 0)
(15361.4 -31286.4 0)
(14992.8 -30349.4 0)
(14640.3 -29461.9 0)
(14302.9 -28620.5 0)
(13979.3 -27821.2 0)
(13668.7 -27061.2 0)
(13370.4 -26337.7 0)
(13083.4 -25648.4 0)
(12807.3 -24991 0)
(12541.2 -24363 0)
(12284.7 -23762.7 0)
(12037.2 -23188.4 0)
(11798.2 -22638.5 0)
(11567.5 -22111.6 0)
(11344.4 -21606 0)
(11128.6 -21120.7 0)
(10919.8 -20654.4 0)
(10717.6 -20206.1 0)
(10521.9 -19774.9 0)
(10332.1 -19359.7 0)
(10148.1 -18959.7 0)
(9969.7 -18574 0)
(9796.57 -18202.1 0)
(9628.57 -17843.2 0)
(9465.4 -17496.5 0)
(9306.9 -17161.5 0)
(9152.94 -16837.7 0)
(9003.25 -16524.4 0)
(8857.71 -16221.3 0)
(8716.17 -15927.7 0)
(8578.46 -15643.4 0)
(8444.5 -15367.9 0)
(8314.05 -15100.8 0)
(8187.05 -14841.7 0)
(8063.36 -14590.2 0)
(7942.86 -14346.2 0)
(7825.49 -14109.2 0)
(7711.05 -13879 0)
(7599.49 -13655.2 0)
(7490.7 -13437.6 0)
(7384.61 -13226 0)
(7281.15 -13020.3 0)
(7180.16 -12820 0)
(7081.6 -12625 0)
(6985.4 -12435.1 0)
(6891.48 -12250.1 0)
(6799.79 -12069.9 0)
(6710.21 -11894.3 0)
(6622.7 -11723 0)
(6537.22 -11556.1 0)
(6453.66 -11393.2 0)
(6371.98 -11234.2 0)
(6292.13 -11079.1 0)
(6214.07 -10927.6 0)
(6137.75 -10779.8 0)
(6063.08 -10635.4 0)
(5990.03 -10494.3 0)
(5918.56 -10356.4 0)
(5848.63 -10221.7 0)
(5780.2 -10090 0)
(5713.19 -9961.26 0)
(5647.59 -9835.32 0)
(5583.36 -9712.13 0)
(5520.46 -9591.61 0)
(5458.88 -9473.71 0)
(5398.53 -9358.29 0)
(5339.4 -9245.29 0)
(5281.46 -9134.66 0)
(5224.68 -9026.33 0)
(5169.05 -8920.25 0)
(5114.5 -8816.31 0)
(5061.01 -8714.47 0)
(5008.57 -8614.67 0)
(4957.14 -8516.86 0)
(4906.72 -8421.01 0)
(4857.24 -8327.01 0)
(4808.7 -8234.83 0)
(4761.09 -8144.47 0)
(4714.36 -8055.81 0)
(4668.5 -7968.83 0)
(4623.49 -7883.49 0)
(4579.3 -7799.76 0)
(4535.94 -7717.6 0)
(4493.35 -7636.94 0)
(4451.53 -7557.76 0)
(4410.45 -7480.02 0)
(4370.11 -7403.68 0)
(4330.49 -7328.74 0)
(4291.56 -7255.11 0)
(4253.31 -7182.79 0)
(4215.72 -7111.74 0)
(4178.79 -7041.93 0)
(4142.5 -6973.36 0)
(4106.81 -6905.95 0)
(4071.73 -6839.69 0)
(4037.25 -6774.56 0)
(4003.34 -6710.53 0)
(3970.01 -6647.6 0)
(3937.23 -6585.7 0)
(3904.98 -6524.83 0)
(3873.27 -6464.98 0)
(3842.07 -6406.1 0)
(3811.37 -6348.18 0)
(3781.17 -6291.2 0)
(3751.45 -6235.13 0)
(3722.21 -6179.99 0)
(3693.42 -6125.7 0)
(3665.09 -6072.28 0)
(3637.2 -6019.69 0)
(3609.75 -5967.93 0)
(3582.73 -5916.99 0)
(3556.11 -5866.83 0)
(3529.9 -5817.44 0)
(3504.09 -5768.8 0)