/*--------------------------------*- C++ -*----------------------------------*\
  =========                 |
  \\      /  F ield         | OpenFOAM: The Open Source CFD Toolbox
   \\    /   O peration     | Website:  https://openfoam.org
    \\  /    A nd           | Version:  7
     \\/     M anipulation  |
\*---------------------------------------------------------------------------*/
FoamFile
{
    version     2.0;
    format      ascii;
    class       volVectorField;
    location    "0.0436581";
    object      ER;
}
// * * * * * * * * * * * * * * * * * * * * * * * * * * * * * * * * * * * * * //

dimensions      [1 1 -3 0 0 -1 0];

internalField   nonuniform List<vector> 
58002
(
(12.6689 -0.00505286 0)
(42.1003 -0.00848371 0)
(84.4921 -0.0164601 0)
(150.214 -0.0326747 0)
(252.824 -0.0646523 0)
(411.973 -0.126813 0)
(656.365 -0.246063 0)
(1027.19 -0.471378 0)
(1581.95 -0.889444 0)
(2398.1 -1.64854 0)
(3575.52 -2.99216 0)
(5235.97 -5.30119 0)
(7517.57 -9.13718 0)
(10562.6 -15.2722 0)
(14497.9 -24.6805 0)
(19409.6 -38.4656 0)
(25317.8 -57.7082 0)
(32157.4 -83.2452 0)
(39772 -115.43 0)
(47927 -153.952 0)
(56337 -197.79 0)
(64703.2 -245.317 0)
(72751.6 -294.561 0)
(80260.6 -343.505 0)
(87076.8 -390.363 0)
(93117.5 -433.776 0)
(98360.1 -472.859 0)
(102831 -507.2 0)
(106586 -536.762 0)
(109703 -561.781 0)
(112186 -582.057 0)
(114367 -599.999 0)
(116617 -618.742 0)
(118938 -638.328 0)
(121333 -658.808 0)
(123805 -680.233 0)
(126358 -702.662 0)
(128996 -726.159 0)
(131723 -750.79 0)
(134543 -776.627 0)
(137461 -803.75 0)
(140481 -832.244 0)
(143609 -862.203 0)
(146851 -893.727 0)
(150212 -926.926 0)
(153699 -961.919 0)
(157319 -998.837 0)
(161080 -1037.82 0)
(164986 -1079.02 0)
(169051 -1122.63 0)
(173281 -1168.82 0)
(177688 -1217.8 0)
(182280 -1269.81 0)
(187071 -1325.1 0)
(192073 -1383.95 0)
(197298 -1446.67 0)
(202764 -1513.62 0)
(208485 -1585.18 0)
(214479 -1661.79 0)
(220767 -1743.95 0)
(227369 -1832.21 0)
(234310 -1927.2 0)
(241615 -2029.63 0)
(249312 -2140.28 0)
(257436 -2260.13 0)
(266021 -2390.22 0)
(275108 -2531.78 0)
(284741 -2686.22 0)
(294972 -2855.19 0)
(305856 -3040.64 0)
(317461 -3244.83 0)
(329858 -3470.44 0)
(343134 -3720.66 0)
(357386 -3999.34 0)
(372729 -4311.08 0)
(389293 -4661.49 0)
(407236 -5057.47 0)
(426741 -5507.5 0)
(448026 -6022.18 0)
(471357 -6614.89 0)
(497050 -7302.58 0)
(525499 -8107.08 0)
(557187 -9056.79 0)
(592717 -10188.8 0)
(632854 -11552.1 0)
(678573 -13211.8 0)
(731125 -15253.4 0)
(792121 -17786.2 0)
(863615 -20940 0)
(948124 -24834.6 0)
(1.04838e+06 -29468.8 0)
(1.16627e+06 -34389 0)
(1.29961e+06 -37839.6 0)
(1.43429e+06 -35110.4 0)
(1.53161e+06 -17605.3 0)
(12.6689 -0.0151586 0)
(42.1003 -0.0254513 0)
(84.4921 -0.0493804 0)
(150.214 -0.0980242 0)
(252.824 -0.193957 0)
(411.973 -0.38044 0)
(656.365 -0.73819 0)
(1027.19 -1.41413 0)
(1581.95 -2.66833 0)
(2398.09 -4.94561 0)
(3575.5 -8.97646 0)
(5235.93 -15.9035 0)
(7517.49 -27.4114 0)
(10562.5 -45.8164 0)
(14497.6 -74.0406 0)
(19409.1 -115.395 0)
(25317 -173.121 0)
(32156 -249.729 0)
(39769.9 -346.278 0)
(47923.9 -461.838 0)
(56332.7 -593.339 0)
(64697.4 -735.904 0)
(72744.2 -883.619 0)
(80251.5 -1030.43 0)
(87065.9 -1170.99 0)
(93104.9 -1301.2 0)
(98345.9 -1418.43 0)
(102815 -1521.43 0)
(106569 -1610.1 0)
(109685 -1685.14 0)
(112167 -1745.95 0)
(114348 -1799.77 0)
(116597 -1855.98 0)
(118917 -1914.73 0)
(121310 -1976.15 0)
(123781 -2040.41 0)
(126333 -2107.68 0)
(128970 -2178.15 0)
(131696 -2252.02 0)
(134514 -2329.51 0)
(137430 -2410.85 0)
(140449 -2496.31 0)
(143576 -2586.16 0)
(146816 -2680.7 0)
(150175 -2780.26 0)
(153661 -2885.2 0)
(157278 -2995.91 0)
(161036 -3112.82 0)
(164940 -3236.36 0)
(169002 -3367.13 0)
(173230 -3505.64 0)
(177633 -3652.53 0)
(182222 -3808.49 0)
(187009 -3974.26 0)
(192007 -4150.72 0)
(197228 -4338.78 0)
(202689 -4539.51 0)
(208404 -4754.06 0)
(214393 -4983.76 0)
(220675 -5230.07 0)
(227270 -5494.67 0)
(234203 -5779.42 0)
(241500 -6086.47 0)
(249187 -6418.17 0)
(257301 -6777.4 0)
(265874 -7167.3 0)
(274948 -7591.56 0)
(284566 -8054.39 0)
(294780 -8560.75 0)
(305645 -9116.44 0)
(317228 -9728.22 0)
(329600 -10404.1 0)
(342847 -11153.7 0)
(357067 -11988.3 0)
(372370 -12921.9 0)
(388889 -13971.1 0)
(406778 -15156.6 0)
(426218 -16503.6 0)
(447427 -18043.7 0)
(470663 -19816.8 0)
(496242 -21873.5 0)
(524549 -24278.7 0)
(556059 -27116.9 0)
(591365 -30498.5 0)
(631216 -34569.4 0)
(676568 -39523.5 0)
(728648 -45616 0)
(789041 -53176.4 0)
(859797 -62602.7 0)
(943504 -74287 0)
(1.0432e+06 -88322.7 0)
(1.16173e+06 -103598 0)
(1.29922e+06 -115332 0)
(1.44525e+06 -109667 0)
(1.56016e+06 -58010.3 0)
(12.6689 -0.0252643 0)
(42.1003 -0.0424189 0)
(84.4921 -0.0823006 0)
(150.214 -0.163374 0)
(252.823 -0.323262 0)
(411.972 -0.634066 0)
(656.364 -1.23032 0)
(1027.19 -2.35688 0)
(1581.94 -4.44721 0)
(2398.08 -8.24265 0)
(3575.47 -14.9607 0)
(5235.86 -26.5056 0)
(7517.35 -45.6851 0)
(10562.2 -76.3592 0)
(14497.1 -123.398 0)
(19408.1 -192.319 0)
(25315.4 -288.523 0)
(32153.3 -416.191 0)
(39765.7 -577.088 0)
(47917.8 -769.661 0)
(56324.2 -988.792 0)
(64685.9 -1226.35 0)
(72729.4 -1472.48 0)
(80233.2 -1717.1 0)
(87044.1 -1951.29 0)
(93079.7 -2168.24 0)
(98317.4 -2363.55 0)
(102783 -2535.15 0)
(106535 -2682.87 0)
(109648 -2807.88 0)
(112129 -2909.18 0)
(114308 -2998.83 0)
(116555 -3092.48 0)
(118873 -3190.34 0)
(121265 -3292.65 0)
(123734 -3399.7 0)
(126284 -3511.75 0)
(128918 -3629.14 0)
(131641 -3752.18 0)
(134457 -3881.25 0)
(137370 -4016.74 0)
(140386 -4159.08 0)
(143509 -4308.73 0)
(146746 -4466.19 0)
(150102 -4632 0)
(153583 -4806.78 0)
(157196 -4991.15 0)
(160949 -5185.86 0)
(164849 -5391.59 0)
(168905 -5609.35 0)
(173127 -5840 0)
(177524 -6084.59 0)
(182106 -6344.27 0)
(186886 -6620.29 0)
(191875 -6914.08 0)
(197088 -7227.17 0)
(202539 -7561.34 0)
(208244 -7918.5 0)
(214221 -8300.85 0)
(220490 -8710.83 0)
(227072 -9151.21 0)
(233989 -9625.1 0)
(241269 -10136 0)
(248938 -10688 0)
(257030 -11285.7 0)
(265580 -11934.3 0)
(274628 -12640 0)
(284216 -13409.8 0)
(294396 -14251.8 0)
(305224 -15175.8 0)
(316763 -16192.8 0)
(329086 -17316.1 0)
(342276 -18561.7 0)
(356429 -19948.3 0)
(371655 -21498.8 0)
(388083 -23240.8 0)
(405865 -25208.3 0)
(425177 -27442.9 0)
(446232 -29996.8 0)
(469282 -32935.5 0)
(494634 -36342.1 0)
(522659 -40323.3 0)
(553818 -45017.6 0)
(588680 -50605.9 0)
(627965 -57327.7 0)
(672589 -65501.2 0)
(723730 -75547.9 0)
(782920 -88019.1 0)
(852180 -103603 0)
(934192 -123049 0)
(1.0325e+06 -146813 0)
(1.15164e+06 -173847 0)
(1.29633e+06 -197929 0)
(1.46534e+06 -197718 0)
(1.62243e+06 -117298 0)
(12.6689 -0.0353699 0)
(42.1003 -0.0593862 0)
(84.492 -0.115221 0)
(150.214 -0.228723 0)
(252.823 -0.452566 0)
(411.972 -0.88769 0)
(656.362 -1.72244 0)
(1027.18 -3.29963 0)
(1581.93 -6.22606 0)
(2398.05 -11.5396 0)
(3575.42 -20.9447 0)
(5235.76 -37.1074 0)
(7517.14 -63.9579 0)
(10561.8 -106.9 0)
(14496.3 -172.751 0)
(19406.7 -269.232 0)
(25312.9 -403.905 0)
(32149.3 -582.617 0)
(39759.5 -807.836 0)
(47908.7 -1077.38 0)
(56311.3 -1384.09 0)
(64668.7 -1716.57 0)
(72707.3 -2061.02 0)
(80205.8 -2403.35 0)
(87011.4 -2731.05 0)
(93041.9 -3034.63 0)
(98274.8 -3307.9 0)
(102736 -3548 0)
(106484 -3754.67 0)
(109594 -3929.57 0)
(112072 -4071.3 0)
(114248 -4196.72 0)
(116493 -4327.73 0)
(118808 -4464.64 0)
(121197 -4607.77 0)
(123663 -4757.51 0)
(126209 -4914.26 0)
(128840 -5078.46 0)
(131559 -5250.57 0)
(134371 -5431.11 0)
(137280 -5620.62 0)
(140291 -5819.7 0)
(143410 -6029 0)
(146641 -6249.22 0)
(149991 -6481.11 0)
(153466 -6725.53 0)
(157073 -6983.37 0)
(160819 -7255.63 0)
(164711 -7543.31 0)
(168760 -7847.77 0)
(172973 -8170.27 0)
(177360 -8512.22 0)
(181932 -8875.25 0)
(186701 -9261.1 0)
(191678 -9671.75 0)
(196878 -10109.4 0)
(202314 -10576.4 0)
(208004 -11075.5 0)
(213964 -11609.8 0)
(220214 -12182.7 0)
(226775 -12797.9 0)
(233670 -13459.9 0)
(240924 -14173.6 0)
(248565 -14944.4 0)
(256626 -15778.9 0)
(265140 -16684.5 0)
(274149 -17669.6 0)
(283693 -18744 0)
(293823 -19918.9 0)
(304594 -21207.8 0)
(316069 -22626.1 0)
(328317 -24192.3 0)
(341422 -25928.3 0)
(355476 -27860.2 0)
(370587 -30019.4 0)
(386880 -32444.3 0)
(404502 -35181.5 0)
(423625 -38288.5 0)
(444451 -41837 0)
(467226 -45916.9 0)
(492240 -50642.1 0)
(519850 -56158.6 0)
(550490 -62655.8 0)
(584697 -70380.6 0)
(623148 -79660 0)
(666699 -90929.1 0)
(716450 -104768 0)
(773844 -121948 0)
(840823 -143470 0)
(920099 -170544 0)
(1.01568e+06 -204343 0)
(1.13404e+06 -244962 0)
(1.28629e+06 -287654 0)
(1.48893e+06 -309303 0)
(1.7308e+06 -221819 0)
(12.6688 -0.0454756 0)
(42.1003 -0.0763538 0)
(84.492 -0.148141 0)
(150.214 -0.294072 0)
(252.823 -0.58187 0)
(411.971 -1.14132 0)
(656.359 -2.21456 0)
(1027.18 -4.24236 0)
(1581.92 -8.00489 0)
(2398.02 -14.8366 0)
(3575.36 -26.9287 0)
(5235.62 -47.7087 0)
(7516.85 -82.2296 0)
(10561.2 -137.438 0)
(14495.2 -222.097 0)
(19404.8 -346.134 0)
(25309.6 -519.261 0)
(32144 -748.995 0)
(39751.2 -1038.5 0)
(47896.4 -1384.96 0)
(56294.1 -1779.16 0)
(64645.7 -2206.46 0)
(72677.8 -2649.12 0)
(80169.4 -3089.01 0)
(86967.9 -3510.08 0)
(92991.5 -3900.12 0)
(98218 -4251.21 0)
(102674 -4559.66 0)
(106416 -4825.16 0)
(109522 -5049.83 0)
(111996 -5231.89 0)
(114169 -5392.99 0)
(116410 -5561.27 0)
(118722 -5737.11 0)
(121106 -5920.95 0)
(123568 -6113.27 0)
(126110 -6314.59 0)
(128736 -6525.47 0)
(131450 -6746.5 0)
(134256 -6978.34 0)
(137160 -7221.7 0)
(140165 -7477.34 0)
(143277 -7746.08 0)
(146501 -8028.83 0)
(149844 -8326.56 0)
(153311 -8640.35 0)
(156909 -8971.36 0)
(160646 -9320.87 0)
(164528 -9690.13 0)
(168566 -10080.9 0)
(172767 -10494.8 0)
(177142 -10933.7 0)
(181700 -11399.5 0)
(186454 -11894.6 0)
(191416 -12421.5 0)
(196598 -12983 0)
(202015 -13582.1 0)
(207684 -14222.3 0)
(213622 -14907.5 0)
(219847 -15642.1 0)
(226380 -16430.9 0)
(233244 -17279.5 0)
(240465 -18194.3 0)
(248068 -19182.1 0)
(256088 -20251.4 0)
(264556 -21411.5 0)
(273512 -22673.1 0)
(282998 -24048.6 0)
(293062 -25552.6 0)
(303758 -27201.8 0)
(315147 -29016.1 0)
(327297 -31018.7 0)
(340289 -33237.4 0)
(354213 -35705.4 0)
(369172 -38462.2 0)
(385287 -41556.2 0)
(402699 -45046.3 0)
(421572 -49004.7 0)
(442100 -53521.3 0)
(464513 -58709 0)
(489086 -64709.9 0)
(516151 -71706.3 0)
(546114 -79933.8 0)
(579469 -89699.4 0)
(616835 -101409 0)
(658989 -115603 0)
(706928 -133008 0)
(761956 -154604 0)
(825858 -181708 0)
(901220 -216067 0)
(992189 -259872 0)
(1.10651e+06 -315469 0)
(1.26148e+06 -383552 0)
(1.501e+06 -452910 0)
(1.91012e+06 -430831 0)
(12.6688 -0.0555814 0)
(42.1002 -0.0933213 0)
(84.4919 -0.181061 0)
(150.214 -0.359421 0)
(252.822 -0.711174 0)
(411.969 -1.39494 0)
(656.356 -2.70667 0)
(1027.17 -5.18509 0)
(1581.9 -9.7837 0)
(2397.99 -18.1334 0)
(3575.28 -32.9123 0)
(5235.45 -58.3094 0)
(7516.5 -100.5 0)
(10560.5 -167.973 0)
(14493.9 -271.436 0)
(19402.4 -423.018 0)
(25305.5 -634.584 0)
(32137.3 -915.309 0)
(39740.9 -1269.05 0)
(47881.2 -1692.35 0)
(56272.7 -2173.95 0)
(64616.9 -2695.93 0)
(72640.9 -3236.64 0)
(80123.8 -3773.91 0)
(86913.6 -4288.15 0)
(92928.6 -4764.46 0)
(98147.1 -5193.17 0)
(102596 -5569.79 0)
(106332 -5893.94 0)
(109431 -6168.24 0)
(111901 -6390.49 0)
(114070 -6587.16 0)
(116307 -6792.6 0)
(118613 -7007.24 0)
(120993 -7231.65 0)
(123450 -7466.4 0)
(125986 -7712.12 0)
(128606 -7969.49 0)
(131314 -8239.25 0)
(134113 -8522.2 0)
(137010 -8819.17 0)
(140007 -9131.12 0)
(143111 -9459.05 0)
(146326 -9804.05 0)
(149660 -10167.3 0)
(153117 -10550.1 0)
(156704 -10953.9 0)
(160430 -11380.3 0)
(164299 -11830.7 0)
(168324 -12307.3 0)
(172511 -12812.1 0)
(176870 -13347.2 0)
(181412 -13915.2 0)
(186147 -14518.9 0)
(191088 -15161.2 0)
(196249 -15845.5 0)
(201643 -16575.7 0)
(207286 -17355.8 0)
(213195 -18190.7 0)
(219389 -19085.5 0)
(225888 -20046.4 0)
(232714 -21079.8 0)
(239893 -22193.5 0)
(247450 -23395.9 0)
(255418 -24697.3 0)
(263829 -26108.7 0)
(272720 -27643.1 0)
(282133 -29315.6 0)
(292115 -31143.6 0)
(302718 -33147.4 0)
(314001 -35350.8 0)
(326031 -37781.7 0)
(338883 -40473.4 0)
(352646 -43465.8 0)
(367417 -46806.1 0)
(383313 -50552 0)
(400468 -54773.7 0)
(419034 -59557.1 0)
(439195 -65008.9 0)
(461166 -71262.5 0)
(485200 -78485.7 0)
(511603 -86892.9 0)
(540743 -96760.6 0)
(573065 -108448 0)
(609117 -122429 0)
(649583 -139335 0)
(695325 -160019 0)
(747465 -185643 0)
(807531 -217818 0)
(877761 -258817 0)
(961841 -311940 0)
(1.06705e+06 -382314 0)
(1.21185e+06 -479075 0)
(1.46332e+06 -623347 0)
(2.20948e+06 -886167 0)
(-3.82113e+06 -29276.4 0)
(-3.48915e+06 -51818.8 0)
(-3.12256e+06 -47537.8 0)
(-2.78941e+06 -34178 0)
(-2.50783e+06 -20312 0)
(-2.27481e+06 -8556.4 0)
(-2.08177e+06 794.001 0)
(-1.92031e+06 8106.9 0)
(-1.78356e+06 13836.9 0)
(-1.66626e+06 18370 0)
(-1.56442e+06 22000.6 0)
(-1.47504e+06 24946.4 0)
(-1.39584e+06 27366.6 0)
(-1.32503e+06 29378.6 0)
(-1.26123e+06 31069.3 0)
(-1.20336e+06 32504.1 0)
(-1.15053e+06 33732.7 0)
(-1.10204e+06 34793.4 0)
(-1.05731e+06 35715.8 0)
(-3.86393e+06 -97859.9 0)
(-3.49878e+06 -162929 0)
(-3.11325e+06 -145142 0)
(-2.77504e+06 -102675 0)
(-2.49431e+06 -60348.2 0)
(-2.26367e+06 -24999.3 0)
(-2.07298e+06 2949.61 0)
(-1.91343e+06 24761.6 0)
(-1.77814e+06 41844.3 0)
(-1.66195e+06 55361.5 0)
(-1.56095e+06 66192.8 0)
(-1.47221e+06 74985.7 0)
(-1.3935e+06 82213.7 0)
(-1.32307e+06 88225.3 0)
(-1.25958e+06 93279.2 0)
(-1.20195e+06 97569.9 0)
(-1.14932e+06 101245 0)
(-1.101e+06 104419 0)
(-1.0564e+06 107180 0)
(-3.95877e+06 -202836 0)
(-3.5141e+06 -297117 0)
(-3.09076e+06 -249622 0)
(-2.74465e+06 -171133 0)
(-2.46684e+06 -98440.6 0)
(-2.2414e+06 -39381 0)
(-2.05551e+06 6814.81 0)
(-1.89978e+06 42733.5 0)
(-1.76741e+06 70844.9 0)
(-1.65341e+06 93101 0)
(-1.55406e+06 110953 0)
(-1.46659e+06 125461 0)
(-1.38885e+06 137400 0)
(-1.31919e+06 147339 0)
(-1.2563e+06 155702 0)
(-1.19915e+06 162807 0)
(-1.14692e+06 168897 0)
(-1.09891e+06 174159 0)
(-1.05458e+06 178739 0)
(-4.12779e+06 -394548 0)
(-3.52348e+06 -470798 0)
(-3.04676e+06 -362734 0)
(-2.69525e+06 -237976 0)
(-2.42478e+06 -132735 0)
(-2.20812e+06 -50179.5 0)
(-2.02964e+06 13542.9 0)
(-1.87963e+06 62880 0)
(-1.75156e+06 101476 0)
(-1.64078e+06 132067 0)
(-1.54387e+06 156644 0)
(-1.45825e+06 176651 0)
(-1.38195e+06 193142 0)
(-1.31341e+06 206891 0)
(-1.25142e+06 218474 0)
(-1.19499e+06 228326 0)
(-1.14333e+06 236779 0)
(-1.0958e+06 244089 0)
(-1.05186e+06 250456 0)
(-4.41547e+06 -784825 0)
(-3.49731e+06 -695820 0)
(-2.96789e+06 -480496 0)
(-2.62327e+06 -299383 0)
(-2.36772e+06 -160712 0)
(-2.1642e+06 -55732.2 0)
(-1.99584e+06 24278.5 0)
(-1.85337e+06 86018.1 0)
(-1.7309e+06 134338 0)
(-1.62429e+06 172709 0)
(-1.53053e+06 203608 0)
(-1.44733e+06 228822 0)
(-1.37289e+06 249649 0)
(-1.30582e+06 267047 0)
(-1.24499e+06 281729 0)
(-1.18949e+06 294236 0)
(-1.1386e+06 304981 0)
(-1.09169e+06 314282 0)
(-1.04827e+06 322392 0)
(-4.90924e+06 -1.63712e+06 0)
(-3.36286e+06 -956028 0)
(-2.83753e+06 -588729 0)
(-2.52647e+06 -348968 0)
(-2.29618e+06 -179304 0)
(-2.11048e+06 -54330 0)
(-1.95483e+06 40104 0)
(-1.82155e+06 112894 0)
(-1.70581e+06 169972 0)
(-1.60422e+06 215431 0)
(-1.51426e+06 252156 0)
(-1.43396e+06 282214 0)
(-1.36178e+06 307111 0)
(-1.29648e+06 327959 0)
(-1.23707e+06 345590 0)
(-1.18272e+06 360637 0)
(-1.13275e+06 373584 0)
(-1.08661e+06 384807 0)
(-1.04383e+06 394605 0)
(-1.01625e+06 36515.2 0)
(-978420 37213.8 0)
(-943034 37834.1 0)
(-909825 38387.7 0)
(-878565 38883.9 0)
(-849054 39330.6 0)
(-821122 39734.2 0)
(-794618 40100.2 0)
(-769411 40433.2 0)
(-745385 40737 0)
(-722439 41015.1 0)
(-700483 41270.3 0)
(-679436 41505 0)
(-659225 41721.3 0)
(-639787 41921.1 0)
(-621063 42106 0)
(-603000 42277.5 0)
(-585550 42436.7 0)
(-568672 42584.8 0)
(-552324 42722.7 0)
(-536471 42851.3 0)
(-521078 42971.4 0)
(-506117 43083.6 0)
(-491559 43188.5 0)
(-477378 43286.8 0)
(-463550 43378.8 0)
(-450053 43465.1 0)
(-436866 43546 0)
(-423970 43621.9 0)
(-411347 43693.1 0)
(-398980 43759.9 0)
(-386854 43822.6 0)
(-374952 43881.3 0)
(-363262 43936.4 0)
(-351770 43988.1 0)
(-340464 44036.4 0)
(-329331 44081.6 0)
(-318360 44123.8 0)
(-307541 44163.2 0)
(-296863 44199.8 0)
(-286315 44233.8 0)
(-275889 44265.2 0)
(-265576 44294.2 0)
(-255366 44320.8 0)
(-245250 44345.1 0)
(-235220 44367.2 0)
(-225269 44387 0)
(-215385 44404.7 0)
(-205564 44420.2 0)
(-195795 44433.6 0)
(-186073 44444.8 0)
(-176391 44453.9 0)
(-166736 44460.9 0)
(-157104 44465.8 0)
(-147485 44468.5 0)
(-137872 44469 0)
(-128260 44467.2 0)
(-118634 44463.1 0)
(-108988 44456.7 0)
(-99314.2 44447.7 0)
(-89602.1 44436.2 0)
(-79845.5 44422.1 0)
(-70027.8 44405 0)
(-60141.4 44385 0)
(-50178 44361.9 0)
(-40119.2 44335.3 0)
(-29955 44305.1 0)
(-19671.6 44271 0)
(-9253.75 44232.7 0)
(1311.44 44189.8 0)
(12048.7 44141.8 0)
(22974.3 44088.3 0)
(34109.8 44028.7 0)
(45479.3 43962.2 0)
(57105.9 43888.1 0)
(69027.1 43805.5 0)
(81273.2 43713.1 0)
(93883 43609.5 0)
(106901 43493.2 0)
(120373 43362.2 0)
(134368 43213.8 0)
(148952 43045 0)
(164208 42852 0)
(180234 42629.6 0)
(197146 42371.8 0)
(215102 42069.8 0)
(234282 41712.6 0)
(254910 41285.3 0)
(277302 40766.5 0)
(301843 40126.7 0)
(329063 39323.5 0)
(359683 38294.1 0)
(394703 36946.6 0)
(435579 35145 0)
(484328 32703.1 0)
(543724 29409.8 0)
(617099 25168.1 0)
(-1.01545e+06 109573 0)
(-977710 111664 0)
(-942401 113522 0)
(-909260 115180 0)
(-878057 116666 0)
(-848596 118004 0)
(-820708 119214 0)
(-794242 120310 0)
(-769068 121308 0)
(-745071 122219 0)
(-722152 123052 0)
(-700219 123817 0)
(-679192 124520 0)
(-659001 125169 0)
(-639580 125768 0)
(-620871 126322 0)
(-602822 126836 0)
(-585385 127314 0)
(-568518 127758 0)
(-552181 128171 0)
(-536336 128557 0)
(-520953 128917 0)
(-506000 129253 0)
(-491449 129568 0)
(-477275 129862 0)
(-463454 130138 0)
(-449962 130397 0)
(-436781 130640 0)
(-423890 130867 0)
(-411272 131081 0)
(-398910 131281 0)
(-386788 131469 0)
(-374891 131645 0)
(-363205 131811 0)
(-351716 131965 0)
(-340413 132110 0)
(-329284 132246 0)
(-318316 132372 0)
(-307500 132491 0)
(-296825 132600 0)
(-286280 132702 0)
(-275857 132797 0)
(-265546 132884 0)
(-255338 132963 0)
(-245225 133036 0)
(-235197 133102 0)
(-225249 133162 0)
(-215368 133215 0)
(-205548 133261 0)
(-195782 133301 0)
(-186062 133335 0)
(-176383 133363 0)
(-166730 133384 0)
(-157100 133398 0)
(-147483 133406 0)
(-137873 133408 0)
(-128263 133403 0)
(-118640 133390 0)
(-108997 133371 0)
(-99325.2 133344 0)
(-89615.9 133310 0)
(-79862.3 133267 0)
(-70047.7 133216 0)
(-60164.6 133156 0)
(-50204.8 133087 0)
(-40149.8 133007 0)
(-29989.7 132917 0)
(-19710.6 132814 0)
(-9297.54 132700 0)
(1262.46 132571 0)
(11994 132427 0)
(22913.3 132267 0)
(34041.9 132088 0)
(45403.6 131889 0)
(57021.4 131667 0)
(68932.8 131419 0)
(81167.6 131143 0)
(93764.5 130833 0)
(106767 130484 0)
(120222 130092 0)
(134197 129648 0)
(148757 129142 0)
(163984 128565 0)
(179975 127899 0)
(196844 127128 0)
(214747 126226 0)
(233859 125159 0)
(254401 123882 0)
(276678 122335 0)
(301066 120428 0)
(328076 118036 0)
(358402 114975 0)
(393006 110972 0)
(433293 105621 0)
(481238 98356.8 0)
(539664 88504.7 0)
(612223 75668.7 0)
(-1.01385e+06 182710 0)
(-976292 186183 0)
(-941139 189268 0)
(-908131 192022 0)
(-877043 194492 0)
(-847682 196716 0)
(-819880 198726 0)
(-793490 200549 0)
(-768382 202208 0)
(-744445 203723 0)
(-721578 205109 0)
(-699692 206381 0)
(-678707 207552 0)
(-658553 208631 0)
(-639165 209627 0)
(-620487 210550 0)
(-602465 211405 0)
(-585054 212200 0)
(-568210 212939 0)
(-551894 213627 0)
(-536069 214269 0)
(-520703 214869 0)
(-505766 215429 0)
(-491230 215953 0)
(-477070 216443 0)
(-463262 216903 0)
(-449782 217334 0)
(-436612 217738 0)
(-423732 218117 0)
(-411124 218472 0)
(-398771 218806 0)
(-386657 219119 0)
(-374768 219412 0)
(-363090 219687 0)
(-351609 219945 0)
(-340313 220187 0)
(-329190 220413 0)
(-318228 220623 0)
(-307418 220820 0)
(-296748 221003 0)
(-286209 221173 0)
(-275792 221330 0)
(-265486 221475 0)
(-255284 221608 0)
(-245175 221729 0)
(-235152 221839 0)
(-225208 221939 0)
(-215332 222027 0)
(-205517 222104 0)
(-195756 222171 0)
(-186040 222227 0)
(-176365 222273 0)
(-166717 222308 0)
(-157091 222332 0)
(-147480 222346 0)
(-137874 222348 0)
(-128269 222340 0)
(-118651 222319 0)
(-109013 222287 0)
(-99347.2 222243 0)
(-89643.6 222185 0)
(-79895.9 222115 0)
(-70087.6 222030 0)
(-60211.1 221930 0)
(-50258.4 221814 0)
(-40210.8 221682 0)
(-30058.9 221531 0)
(-19788.5 221361 0)
(-9384.98 221170 0)
(1164.65 220956 0)
(11884.9 220717 0)
(22791.5 220451 0)
(33906.2 220153 0)
(45252.4 219822 0)
(56852.8 219453 0)
(68744.5 219042 0)
(80956.9 218582 0)
(93528.2 218066 0)
(106501 217488 0)
(119922 216836 0)
(133857 216099 0)
(148369 215261 0)
(163538 214302 0)
(179460 213200 0)
(196244 211923 0)
(214041 210429 0)
(233019 208665 0)
(253389 206558 0)
(275441 204007 0)
(299527 200870 0)
(326125 196943 0)
(355875 191930 0)
(389662 185388 0)
(428782 176653 0)
(475105 164762 0)
(531499 148466 0)
(602234 126725 0)
(-1.01146e+06 255980 0)
(-974176 260813 0)
(-939254 265109 0)
(-906444 268946 0)
(-875527 272388 0)
(-846314 275488 0)
(-818642 278292 0)
(-792365 280835 0)
(-767357 283150 0)
(-743508 285264 0)
(-720719 287199 0)
(-698903 288975 0)
(-677980 290609 0)
(-657882 292116 0)
(-638545 293508 0)
(-619912 294797 0)
(-601932 295992 0)
(-584558 297102 0)
(-567749 298135 0)
(-551464 299097 0)
(-535668 299994 0)
(-520328 300832 0)
(-505416 301615 0)
(-490903 302347 0)
(-476763 303033 0)
(-462974 303675 0)
(-449513 304278 0)
(-436359 304842 0)
(-423495 305372 0)
(-410901 305869 0)
(-398562 306336 0)
(-386461 306774 0)
(-374584 307184 0)
(-362917 307569 0)
(-351447 307930 0)
(-340162 308267 0)
(-329049 308583 0)
(-318097 308878 0)
(-307295 309153 0)
(-296634 309409 0)
(-286104 309647 0)
(-275694 309866 0)
(-265396 310069 0)
(-255201 310255 0)
(-245100 310425 0)
(-235085 310579 0)
(-225148 310718 0)
(-215278 310841 0)
(-205470 310950 0)
(-195716 311043 0)
(-186007 311122 0)
(-176339 311186 0)
(-166698 311235 0)
(-157079 311269 0)
(-147475 311288 0)
(-137876 311292 0)
(-128279 311280 0)
(-118668 311252 0)
(-109038 311207 0)
(-99380.1 311145 0)
(-89685 311065 0)
(-79946.2 310966 0)
(-70147.2 310847 0)
(-60280.7 310708 0)
(-50338.5 310547 0)
(-40302.3 310362 0)
(-30162.4 310152 0)
(-19905.2 309914 0)
(-9515.82 309647 0)
(1018.3 309349 0)
(11721.5 309015 0)
(22609.4 308643 0)
(33703.3 308228 0)
(45026.3 307766 0)
(56600.7 307252 0)
(68463 306678 0)
(80642.1 306036 0)
(93175.1 305318 0)
(106104 304512 0)
(119474 303605 0)
(133348 302579 0)
(147789 301413 0)
(162874 300082 0)
(178693 298551 0)
(195351 296780 0)
(212992 294711 0)
(231773 292271 0)
(251890 289363 0)
(273613 285849 0)
(297259 281540 0)
(323258 276166 0)
(352174 269328 0)
(384773 260440 0)
(422179 248600 0)
(466049 232447 0)
(519168 210006 0)
(586602 178963 0)
(-1.0083e+06 329434 0)
(-971372 335600 0)
(-936756 341084 0)
(-904208 345985 0)
(-873517 350384 0)
(-844500 354348 0)
(-816998 357933 0)
(-790871 361188 0)
(-765996 364151 0)
(-742263 366857 0)
(-719578 369335 0)
(-697854 371610 0)
(-677014 373704 0)
(-656991 375635 0)
(-637721 377419 0)
(-619148 379071 0)
(-601223 380604 0)
(-583899 382027 0)
(-567135 383352 0)
(-550892 384585 0)
(-535134 385736 0)
(-519830 386811 0)
(-504949 387815 0)
(-490466 388755 0)
(-476354 389635 0)
(-462591 390460 0)
(-449153 391233 0)
(-436022 391958 0)
(-423179 392638 0)
(-410604 393276 0)
(-398284 393875 0)
(-386200 394437 0)
(-374340 394964 0)
(-362688 395458 0)
(-351232 395921 0)
(-339961 396355 0)
(-328861 396761 0)
(-317921 397139 0)
(-307132 397492 0)
(-296483 397821 0)
(-285963 398126 0)
(-275564 398409 0)
(-265277 398669 0)
(-255092 398908 0)
(-245000 399126 0)
(-234994 399324 0)
(-225067 399502 0)
(-215207 399661 0)
(-205408 399800 0)
(-195663 399921 0)
(-185963 400022 0)
(-176304 400104 0)
(-166672 400167 0)
(-157063 400211 0)
(-147468 400236 0)
(-137879 400241 0)
(-128291 400225 0)
(-118690 400189 0)
(-109071 400132 0)
(-99423.8 400052 0)
(-89740 399950 0)
(-80013 399823 0)
(-70226.5 399671 0)
(-60373.2 399493 0)
(-50445 399286 0)
(-40423.8 399049 0)
(-30300 398780 0)
(-20060.2 398476 0)
(-9689.7 398134 0)
(823.854 397752 0)
(11504.5 397325 0)
(22367.6 396848 0)
(33433.9 396317 0)
(44726.2 395726 0)
(56266.1 395068 0)
(68089.5 394334 0)
(80224.4 393514 0)
(92707 392596 0)
(105578 391567 0)
(118880 390409 0)
(132676 389100 0)
(147023 387614 0)
(161996 385919 0)
(177680 383973 0)
(194174 381723 0)
(211611 379100 0)
(230137 376014 0)
(249928 372343 0)
(271225 367922 0)
(294309 362521 0)
(319544 355813 0)
(347400 347324 0)
(378491 336349 0)
(413698 321799 0)
(454309 301958 0)
(502679 274044 0)
(564370 233578 0)
(-1.00438e+06 403121 0)
(-967897 410585 0)
(-933658 417229 0)
(-901433 423170 0)
(-871021 428506 0)
(-842246 433318 0)
(-814956 437671 0)
(-789014 441625 0)
(-764302 445226 0)
(-740714 448517 0)
(-718158 451531 0)
(-696548 454298 0)
(-675812 456846 0)
(-655880 459196 0)
(-636693 461369 0)
(-618196 463381 0)
(-600339 465247 0)
(-583078 466981 0)
(-566370 468595 0)
(-550179 470098 0)
(-534468 471501 0)
(-519208 472811 0)
(-504368 474035 0)
(-489922 475181 0)
(-475845 476254 0)
(-462113 477260 0)
(-448705 478202 0)
(-435602 479086 0)
(-422784 479916 0)
(-410234 480694 0)
(-397936 481425 0)
(-385875 482110 0)
(-374034 482753 0)
(-362402 483357 0)
(-350964 483922 0)
(-339709 484451 0)
(-328626 484946 0)
(-317702 485408 0)
(-306928 485839 0)
(-296293 486240 0)
(-285787 486612 0)
(-275402 486957 0)
(-265127 487275 0)
(-254955 487567 0)
(-244876 487833 0)
(-234882 488075 0)
(-224966 488292 0)
(-215118 488486 0)
(-205330 488656 0)
(-195596 488803 0)
(-185908 488927 0)
(-176261 489028 0)
(-166640 489105 0)
(-157042 489159 0)
(-147459 489189 0)
(-137882 489195 0)
(-128306 489177 0)
(-118718 489133 0)
(-109112 489063 0)
(-99478.2 488967 0)
(-89808.4 488842 0)
(-80096.2 488688 0)
(-70325.2 488503 0)
(-60488.3 488286 0)
(-50577.6 488035 0)
(-40575 487746 0)
(-30471.3 487419 0)
(-20253.1 487049 0)
(-9906.1 486633 0)
(581.877 486168 0)
(11234.5 485648 0)
(22066.7 485069 0)
(33098.8 484424 0)
(44353 483706 0)
(55850.3 482906 0)
(67625.6 482015 0)
(79705.9 481020 0)
(92126.2 479907 0)
(104925 478659 0)
(118144 477257 0)
(131843 475673 0)
(146075 473877 0)
(160911 471830 0)
(176431 469483 0)
(192725 466775 0)
(209915 463625 0)
(228131 459926 0)
(247530 455542 0)
(268320 450280 0)
(290734 443881 0)
(315069 435978 0)
(341684 426042 0)
(371016 413296 0)
(403647 396533 0)
(440317 373815 0)
(482321 341726 0)
(533868 293111 0)
(619935 20362.2 0)
(552233 16120.2 0)
(498513 12826 0)
(455443 10382.9 0)
(420251 8579.81 0)
(390920 7230.39 0)
(365999 6198.64 0)
(344487 5392.65 0)
(325665 4749.77 0)
(309005 4227.43 0)
(294120 3796.1 0)
(280701 3434.55 0)
(268523 3127.79 0)
(257406 2864.71 0)
(247196 2636.75 0)
(237779 2437.61 0)
(229057 2262.3 0)
(220948 2106.93 0)
(213388 1968.43 0)
(206312 1844.21 0)
(199675 1732.29 0)
(193434 1630.98 0)
(187551 1538.91 0)
(181997 1454.94 0)
(176739 1378.04 0)
(171756 1307.41 0)
(167024 1242.35 0)
(162524 1182.27 0)
(158241 1126.64 0)
(154155 1074.99 0)
(150254 1026.94 0)
(146526 982.143 0)
(142958 940.305 0)
(139542 901.164 0)
(136265 864.462 0)
(133120 830.003 0)
(130100 797.599 0)
(127196 767.083 0)
(124403 738.316 0)
(121713 711.142 0)
(119122 685.448 0)
(116623 661.136 0)
(114212 638.09 0)
(111885 616.226 0)
(109636 595.463 0)
(107462 575.726 0)
(105361 556.952 0)
(103327 539.067 0)
(101358 522.02 0)
(99450.6 505.756 0)
(97602.2 490.228 0)
(95810.8 475.399 0)
(94072.7 461.215 0)
(92386 447.641 0)
(90748.7 434.644 0)
(89158.5 422.192 0)
(87614.2 410.256 0)
(86112.7 398.802 0)
(84652.9 387.808 0)
(83233.2 377.246 0)
(81851.8 367.097 0)
(80507.8 357.342 0)
(79198.9 347.954 0)
(77924.3 338.916 0)
(76682.9 330.216 0)
(75472.8 321.833 0)
(74293.3 313.75 0)
(73143.3 305.956 0)
(72021.6 298.437 0)
(70927.8 291.18 0)
(69860 284.171 0)
(68817.9 277.401 0)
(67800.4 270.859 0)
(66806.8 264.535 0)
(65836.6 258.421 0)
(64888.5 252.503 0)
(63961.9 246.776 0)
(63056.2 241.231 0)
(62170.8 235.863 0)
(61305.3 230.663 0)
(60458.6 225.622 0)
(59630.2 220.737 0)
(58819.7 215.998 0)
(58026.6 211.401 0)
(57250.4 206.943 0)
(56490.4 202.616 0)
(55746.2 198.414 0)
(55017.5 194.335 0)
(54303.6 190.372 0)
(53604.1 186.52 0)
(52918.8 182.777 0)
(52247.1 179.141 0)
(51589 175.605 0)
(50943.6 172.165 0)
(50310.8 168.819 0)
(49690.3 165.563 0)
(49081.7 162.393 0)
(48484.9 159.31 0)
(47899.2 156.305 0)
(47324.4 153.379 0)
(46760.4 150.529 0)
(46206.9 147.753 0)
(45663.7 145.048 0)
(45130.2 142.41 0)
(44606.4 139.839 0)
(44092.1 137.332 0)
(43586.9 134.888 0)
(43090.8 132.504 0)
(42603.3 130.176 0)
(42124.4 127.905 0)
(41653.8 125.69 0)
(41191.3 123.527 0)
(40736.8 121.415 0)
(40290 119.353 0)
(39850.8 117.339 0)
(39419 115.373 0)
(38994.4 113.45 0)
(38576.8 111.572 0)
(38166.1 109.737 0)
(37762.1 107.944 0)
(37364.9 106.19 0)
(36973.9 104.475 0)
(36589.3 102.799 0)
(36210.8 101.16 0)
(35838.3 99.5546 0)
(35471.8 97.9862 0)
(35110.9 96.4519 0)
(34755.7 94.9488 0)
(34406.1 93.4774 0)
(34061.8 92.0389 0)
(33722.9 90.6312 0)
(33389.1 89.2513 0)
(33060.3 87.9005 0)
(32736.5 86.578 0)
(32417.6 85.2826 0)
(32103.5 84.0144 0)
(31794 82.7714 0)
(31489 81.5527 0)
(31188.6 80.3591 0)
(30892.6 79.1894 0)
(30600.8 78.0431 0)
(30313.2 76.9192 0)
(30029.7 75.8173 0)
(29750.4 74.7372 0)
(29475 73.6774 0)
(29203.5 72.6381 0)
(28935.8 71.6193 0)
(28671.8 70.6204 0)
(28411.6 69.6406 0)
(28154.9 68.6781 0)
(27901.7 67.7336 0)
(27652.1 66.8079 0)
(27405.8 65.8992 0)
(27162.9 65.0063 0)
(26923.3 64.1301 0)
(26686.8 63.2711 0)
(26453.6 62.4273 0)
(26223.4 61.5984 0)
(25996.4 60.7854 0)
(25772.2 59.9866 0)
(25551 59.2012 0)
(25332.7 58.43 0)
(25117.3 57.6731 0)
(24904.6 56.9294 0)
(24694.7 56.1978 0)
(24487.5 55.4797 0)
(24282.9 54.7743 0)
(24080.9 54.0811 0)
(23881.4 53.3994 0)
(23684.5 52.7296 0)
(23490 52.0715 0)
(23298 51.4242 0)
(23108.3 50.7875 0)
(22921 50.1621 0)
(22735.9 49.5472 0)
(22553.1 48.942 0)
(22372.7 48.3464 0)
(22194.3 47.761 0)
(22018.1 47.1856 0)
(21844 46.6196 0)
(21672 46.0628 0)
(21502.1 45.5152 0)
(21334.2 44.9758 0)
(21168.2 44.4453 0)
(21004.2 43.924 0)
(20842.1 43.4104 0)
(20682 42.9045 0)
(20523.7 42.4069 0)
(20367.2 41.9173 0)
(20212.6 41.4352 0)
(20059.6 40.9607 0)
(19908.5 40.494 0)
(19759 40.0345 0)
(19611.3 39.5815 0)
(19465.2 39.1349 0)