/*--------------------------------*- C++ -*----------------------------------*\
  =========                 |
  \\      /  F ield         | OpenFOAM: The Open Source CFD Toolbox
   \\    /   O peration     | Website:  https://openfoam.org
    \\  /    A nd           | Version:  7
     \\/     M anipulation  |
\*---------------------------------------------------------------------------*/
FoamFile
{
    version     2.0;
    format      ascii;
    class       volScalarField;
    location    "0.0436581";
    object      voltAirTot;
}
// * * * * * * * * * * * * * * * * * * * * * * * * * * * * * * * * * * * * * //

dimensions      [1 2 -3 0 0 -1 0];

internalField   nonuniform List<scalar> 
58002
(
9101.58
9106.67
9114
9121.43
9126.92
9128.59
9125.03
9115.82
9101.77
9084.67
9066.58
9049.2
9033.62
9020.4
9009.72
9001.55
8995.7
8991.93
8989.93
8989.36
8989.87
8991.14
8992.85
8994.78
8996.74
8998.6
9000.31
9001.82
9003.11
9004.21
9005.1
9005.88
9006.69
9007.54
9008.42
9009.34
9010.3
9011.3
9012.33
9013.41
9014.54
9015.71
9016.93
9018.2
9019.53
9020.91
9022.35
9023.85
9025.42
9027.05
9028.75
9030.53
9032.39
9034.33
9036.36
9038.48
9040.7
9043.02
9045.45
9047.99
9050.66
9053.46
9056.39
9059.47
9062.7
9066.1
9069.68
9073.45
9077.43
9081.62
9086.05
9090.73
9095.69
9100.95
9106.53
9112.47
9118.8
9125.57
9132.81
9140.58
9148.96
9158.02
9167.85
9178.6
9190.41
9203.53
9218.24
9235
9254.5
9277.85
9306.97
9345.52
9401.14
9492.61
9682.81
9101.57
9106.66
9113.99
9121.41
9126.89
9128.55
9124.98
9115.77
9101.72
9084.64
9066.57
9049.21
9033.67
9020.5
9009.89
9001.78
8996.02
8992.35
8990.47
8990.02
8990.65
8992.03
8993.86
8995.9
8997.96
8999.92
9001.7
9003.28
9004.63
9005.77
9006.7
9007.51
9008.36
9009.24
9010.16
9011.12
9012.11
9013.15
9014.23
9015.35
9016.52
9017.74
9019.01
9020.33
9021.71
9023.15
9024.64
9026.2
9027.83
9029.53
9031.31
9033.16
9035.09
9037.11
9039.22
9041.43
9043.74
9046.16
9048.69
9051.34
9054.13
9057.05
9060.11
9063.33
9066.71
9070.27
9074.03
9077.98
9082.15
9086.56
9091.23
9096.17
9101.41
9106.98
9112.91
9119.23
9126
9133.24
9141.03
9149.43
9158.53
9168.44
9179.27
9191.21
9204.48
9219.39
9236.37
9256.07
9279.45
9308.13
9344.81
9394.49
9467.01
9583.77
9795.39
9101.56
9106.65
9113.98
9121.39
9126.86
9128.51
9124.94
9115.72
9101.67
9084.6
9066.55
9049.22
9033.72
9020.6
9010.05
9002.02
8996.35
8992.78
8991
8990.67
8991.42
8992.93
8994.88
8997.02
8999.18
9001.23
9003.09
9004.73
9006.14
9007.32
9008.29
9009.13
9010.01
9010.93
9011.89
9012.88
9013.91
9014.99
9016.11
9017.28
9018.49
9019.76
9021.07
9022.45
9023.88
9025.37
9026.92
9028.54
9030.23
9031.99
9033.83
9035.76
9037.76
9039.86
9042.05
9044.35
9046.75
9049.26
9051.9
9054.66
9057.55
9060.59
9063.78
9067.14
9070.67
9074.39
9078.31
9082.44
9086.81
9091.43
9096.33
9101.52
9107.04
9112.91
9119.17
9125.87
9133.04
9140.76
9149.07
9158.08
9167.87
9178.58
9190.37
9203.44
9218.07
9234.64
9253.71
9276.04
9302.86
9336.06
9378.84
9436.75
9519.91
9647.1
9850.01
9101.56
9106.64
9113.97
9121.37
9126.83
9128.48
9124.89
9115.67
9101.63
9084.56
9066.53
9049.23
9033.77
9020.7
9010.21
9002.26
8996.67
8993.2
8991.53
8991.32
8992.2
8993.82
8995.88
8998.14
9000.39
9002.53
9004.47
9006.17
9007.63
9008.87
9009.87
9010.74
9011.66
9012.61
9013.6
9014.63
9015.7
9016.82
9017.98
9019.19
9020.45
9021.76
9023.12
9024.54
9026.02
9027.57
9029.18
9030.85
9032.6
9034.43
9036.34
9038.33
9040.41
9042.58
9044.86
9047.24
9049.72
9052.33
9055.06
9057.93
9060.94
9064.09
9067.41
9070.9
9074.57
9078.44
9082.53
9086.84
9091.4
9096.22
9101.34
9106.78
9112.56
9118.72
9125.31
9132.36
9139.93
9148.09
9156.91
9166.49
9176.95
9188.41
9201.09
9215.2
9231.08
9249.17
9270.08
9294.71
9324.38
9361.19
9408.43
9471.6
9559.89
9688.21
9876.15
9101.55
9106.63
9113.95
9121.35
9126.81
9128.44
9124.85
9115.62
9101.58
9084.53
9066.51
9049.25
9033.82
9020.8
9010.37
9002.49
8997
8993.63
8992.07
8991.97
8992.97
8994.71
8996.89
8999.25
9001.6
9003.82
9005.84
9007.6
9009.12
9010.4
9011.44
9012.35
9013.29
9014.28
9015.3
9016.37
9017.48
9018.63
9019.83
9021.08
9022.39
9023.74
9025.15
9026.62
9028.15
9029.75
9031.41
9033.15
9034.96
9036.85
9038.82
9040.88
9043.03
9045.28
9047.63
9050.09
9052.67
9055.36
9058.19
9061.16
9064.28
9067.55
9070.99
9074.6
9078.42
9082.44
9086.68
9091.16
9095.9
9100.93
9106.26
9111.93
9117.97
9124.41
9131.31
9138.7
9146.65
9155.24
9164.53
9174.65
9185.72
9197.89
9211.38
9226.45
9243.45
9262.87
9285.36
9311.89
9343.82
9383.25
9433.35
9499.08
9588.12
9711.82
9884.75
9101.55
9106.62
9113.94
9121.33
9126.78
9128.4
9124.8
9115.57
9101.53
9084.49
9066.5
9049.26
9033.87
9020.9
9010.53
9002.73
8997.32
8994.05
8992.6
8992.62
8993.73
8995.59
8997.89
9000.35
9002.81
9005.11
9007.2
9009.03
9010.6
9011.93
9013
9013.94
9014.92
9015.94
9016.99
9018.1
9019.24
9020.43
9021.67
9022.97
9024.31
9025.71
9027.16
9028.68
9030.26
9031.91
9033.63
9035.42
9037.29
9039.24
9041.27
9043.4
9045.62
9047.94
9050.37
9052.91
9055.57
9058.36
9061.28
9064.35
9067.57
9070.95
9074.51
9078.25
9082.2
9086.36
9090.76
9095.4
9100.32
9105.54
9111.08
9116.98
9123.26
9129.97
9137.16
9144.87
9153.19
9162.17
9171.91
9182.53
9194.17
9206.98
9221.21
9237.13
9255.11
9275.66
9299.47
9327.48
9361.06
9402.17
9453.68
9519.72
9606.18
9720.99
9876.46
9417.9
9116.52
8981.54
8893.79
8820.61
8750.15
8677.46
8600.39
8518.02
8430.09
8336.76
8238.55
8136.38
8031.65
7926.32
7823.05
7725.21
7636.72
7561.67
9639.27
9293.36
9110.27
8992.16
8900.48
8818.79
8739.54
8659.06
8575.57
8488.3
8397.13
8302.4
8204.91
8105.93
8007.27
7911.32
7821
7739.64
7670.62
9748.18
9416.99
9213.06
9075.33
8969.71
8878.92
8794.12
8710.72
8626.32
8539.75
8450.64
8359.17
8266
8172.28
8079.63
7990.17
7906.45
7831.28
7767.48
9801.2
9497.34
9289.56
9141.71
9026.98
8929.53
8840.47
8754.82
8669.83
8584.07
8496.97
8408.57
8319.4
8230.49
8143.26
8059.59
7981.67
7911.91
7852.65
9820.28
9543.08
9341.53
9191.03
9071.58
8969.97
8878.03
8790.9
8705.71
8620.92
8535.82
8450.34
8364.9
8280.38
8198.06
8119.55
8046.78
7981.77
7926.5
9808.61
9559.91
9371.43
9223.85
9103.38
8999.86
8906.41
8818.58
8733.64
8650.01
8566.93
8484.25
8402.29
8321.82
8243.94
8170.08
8101.88
8041.07
7989.33
7504.28
7466.03
7446.91
7446.03
7461.46
7490.82
7531.66
7581.69
7638.9
7701.61
7768.39
7838.12
7909.87
7982.9
8056.61
8130.53
8204.28
8277.56
8350.14
8421.82
8492.47
8561.95
8630.18
8697.08
8762.61
8826.72
8889.38
8950.57
9010.27
9068.48
9125.18
9180.38
9234.08
9286.28
9336.99
9386.2
9433.93
9480.19
9524.97
9568.3
9610.16
9650.58
9689.56
9727.11
9763.23
9797.92
9831.2
9863.07
9893.54
9922.6
9950.26
9976.51
10001.4
10024.8
10046.9
10067.6
10086.9
10104.7
10121.2
10136.3
10149.9
10162.1
10172.9
10182.2
10190.1
10196.5
10201.5
10205
10206.9
10207.4
10206.3
10203.6
10199.3
10193.5
10186
10176.9
10166
10153.5
10139.2
10123.1
10105.2
10085.4
10063.7
10040.1
10014.6
9986.95
9957.3
9925.55
9891.65
9855.54
9817.14
9776.33
9732.9
9686.47
9636.39
9581.54
9520.15
7617.43
7581.25
7562.08
7559.33
7571.52
7596.74
7632.92
7678.06
7730.37
7788.29
7850.5
7915.89
7983.58
8052.81
8122.99
8193.63
8264.34
8334.81
8404.77
8474.02
8542.4
8609.78
8676.06
8741.14
8804.97
8867.48
8928.65
8988.45
9046.84
9103.81
9159.36
9213.47
9266.14
9317.37
9367.16
9415.5
9462.41
9507.89
9551.94
9594.57
9635.77
9675.57
9713.95
9750.93
9786.51
9820.7
9853.49
9884.91
9914.94
9943.59
9970.86
9996.74
10021.3
10044.4
10066.2
10086.5
10105.5
10123.1
10139.4
10154.2
10167.6
10179.6
10190.3
10199.4
10207.2
10213.5
10218.3
10221.7
10223.6
10224
10222.8
10220.2
10215.9
10210.1
10202.7
10193.6
10182.9
10170.4
10156.3
10140.4
10122.7
10103.2
10081.8
10058.6
10033.4
10006.2
9977.04
9945.8
9912.45
9876.91
9839.08
9798.83
9755.9
9709.86
9660.02
9605.23
9543.66
7717.96
7683.68
7664.64
7660.45
7669.96
7691.63
7723.72
7764.5
7812.36
7865.88
7923.83
7985.16
8048.99
8114.6
8181.39
8248.87
8316.63
8384.35
8451.75
8518.62
8584.79
8650.1
8714.44
8777.72
8839.86
8900.79
8960.48
9018.89
9075.97
9131.72
9186.11
9239.13
9290.77
9341.03
9389.9
9437.38
9483.47
9528.17
9571.48
9613.41
9653.95
9693.11
9730.9
9767.31
9802.36
9836.04
9868.35
9899.3
9928.9
9957.13
9984.01
10009.5
10033.7
10056.5
10077.9
10098
10116.8
10134.1
10150.1
10164.7
10177.9
10189.8
10200.2
10209.2
10216.8
10223
10227.8
10231.1
10232.9
10233.2
10232
10229.4
10225.1
10219.3
10212
10203
10192.4
10180.1
10166.1
10150.4
10133
10113.7
10092.7
10069.8
10045
10018.2
9989.53
9958.83
9926.04
9891.09
9853.89
9814.26
9771.96
9726.52
9677.25
9623.03
9562.06
7806.38
7773.84
7755.05
7749.74
7757.03
7775.66
7804.16
7841.04
7884.87
7934.35
7988.34
8045.86
8106.05
8168.21
8231.76
8296.18
8361.09
8426.14
8491.05
8555.59
8619.58
8682.85
8745.29
8806.79
8867.25
8926.63
8984.84
9041.87
9097.65
9152.18
9205.41
9257.34
9307.96
9357.25
9405.2
9451.81
9497.08
9541
9583.58
9624.8
9664.68
9703.22
9740.41
9776.25
9810.76
9843.93
9875.75
9906.25
9935.4
9963.23
9989.71
10014.9
10038.7
10061.2
10082.3
10102.1
10120.5
10137.6
10153.4
10167.8
10180.8
10192.4
10202.7
10211.6
10219.1
10225.1
10229.8
10233
10234.7
10235
10233.8
10231.2
10226.9
10221.2
10213.9
10205
10194.5
10182.4
10168.6
10153.1
10135.9
10116.9
10096.2
10073.6
10049.2
10023
9994.77
9964.61
9932.41
9898.09
9861.56
9822.64
9781.08
9736.44
9688.08
9634.96
9575.38
7883.1
7852.17
7833.7
7827.53
7832.96
7848.97
7874.32
7907.72
7947.89
7993.67
8043.99
8097.93
8154.69
8213.58
8274.02
8335.52
8397.67
8460.13
8522.61
8584.88
8646.73
8708.01
8768.57
8828.31
8887.13
8944.95
9001.71
9057.36
9111.86
9165.16
9217.25
9268.1
9317.69
9366.01
9413.05
9458.8
9503.24
9546.39
9588.22
9628.75
9667.97
9705.87
9742.46
9777.74
9811.71
9844.36
9875.7
9905.74
9934.46
9961.87
9987.96
10012.7
10036.2
10058.4
10079.2
10098.7
10116.9
10133.7
10149.2
10163.4
10176.2
10187.7
10197.8
10206.5
10213.8
10219.8
10224.3
10227.5
10229.2
10229.4
10228.2
10225.5
10221.4
10215.7
10208.4
10199.6
10189.3
10177.3
10163.7
10148.4
10131.4
10112.8
10092.4
10070.2
10046.2
10020.4
9992.74
9963.14
9931.55
9897.9
9862.08
9823.94
9783.24
9739.59
9692.44
9640.91
9583.55
7948.49
7919.04
7900.94
7894.1
7897.98
7911.73
7934.31
7964.58
8001.44
8043.82
8090.74
8141.35
8194.87
8250.65
8308.13
8366.82
8426.31
8486.27
8546.39
8606.44
8666.21
8725.53
8784.25
8842.26
8899.45
8955.74
9011.06
9065.35
9118.56
9170.66
9221.61
9271.38
9319.95
9367.31
9413.43
9458.31
9501.94
9544.31
9585.41
9625.23
9663.79
9701.06
9737.05
9771.76
9805.19
9837.34
9868.19
9897.76
9926.05
9953.04
9978.75
10003.2
10026.3
10048.1
10068.6
10087.8
10105.7
10122.3
10137.6
10151.5
10164.2
10175.4
10185.4
10194
10201.2
10207
10211.5
10214.6
10216.2
10216.4
10215.2
10212.5
10208.4
10202.7
10195.6
10186.9
10176.6
10164.8
10151.4
10136.4
10119.7
10101.3
10081.3
10059.5
10035.9
10010.6
9983.42
9954.4
9923.44
9890.49
9855.44
9818.15
9778.42
9735.92
9690.23
9640.72
9586.4
9449.65
9393.82
9349.59
9314.37
9286.06
9263.05
9244.08
9228.22
9214.77
9203.18
9193.07
9184.13
9176.13
9168.9
9162.28
9156.2
9150.55
9145.27
9140.31
9135.64
9131.2
9126.98
9122.96
9119.1
9115.4
9111.85
9108.42
9105.11
9101.92
9098.83
9095.83
9092.92
9090.1
9087.36
9084.69
9082.09
9079.56
9077.09
9074.69
9072.34
9070.05
9067.82
9065.63
9063.49
9061.4
9059.36
9057.36
9055.4
9053.48
9051.6
9049.75
9047.95
9046.18
9044.44
9042.73
9041.06
9039.42
9037.81
9036.22
9034.67
9033.14
9031.64
9030.16
9028.71
9027.28
9025.88
9024.5
9023.14
9021.8
9020.49
9019.19
9017.92
9016.66
9015.42
9014.2
9013
9011.82
9010.65
9009.5
9008.37
9007.25
9006.15
9005.06
9003.99
9002.93
9001.88
9000.85
8999.84
8998.83
8997.84
8996.86
8995.89
8994.94
8994
8993.06
8992.14
8991.23
8990.33
8989.45
8988.57
8987.7
8986.84
8985.99
8985.15
8984.32
8983.5
8982.69
8981.88
8981.09
8980.3
8979.52
8978.75
8977.99
8977.24
8976.49
8975.75
8975.02
8974.29
8973.57
8972.86
8972.16
8971.46
8970.77
8970.08
8969.4
8968.73
8968.06
8967.4
8966.75
8966.1
8965.46
8964.82
8964.19
8963.56
8962.94
8962.32
8961.71
8961.1
8960.5
8959.9
8959.31
8958.73
8958.14
8957.57
8956.99
8956.42
8955.86
8955.3
8954.74
8954.19
8953.64
8953.1
8952.56
8952.02
8951.49
8950.96
8950.44
8949.92
8949.4
8948.89
8948.37
8947.87
8947.36
8946.86
8946.37
8945.87
8945.38
8944.9
8944.41
8943.93
8943.46
8942.98
8942.51
8942.04
8941.57
8941.11
8940.65
8940.19
8939.74
8939.29
8938.84
8938.39
8937.95
8937.5
8937.07
8936.63
8936.2
8935.76
8935.33
8934.91
8934.48
8934.06
8933.64
8933.22
8932.81
8932.36
8931.82
8931.18
8930.43
8929.54
8928.49
8927.25
8925.8
8924.1
8922.12
8919.82
8917.15
8914.08
8910.55
8906.53
8901.95
8896.79
8891.01
8884.56
8877.44
8869.64
8861.19
8852.18
8842.75
8833.14
8823.68
8814.85
8807.16
8801.18
8797.39
8796.08
8797.28
8800.76
8806.05
8812.52
8819.48
8826.15
8831.71
8835.19
9472.71
9416.01
9370.58
9333.93
9304.11
9279.61
9259.23
9242.07
9227.44
9214.8
9203.75
9193.97
9185.22
9177.33
9170.13
9163.52
9157.4
9151.7
9146.36
9141.34
9136.6
9132.1
9127.81
9123.73
9119.81
9116.06
9112.45
9108.97
9105.62
9102.38
9099.25
9096.21
9093.27
9090.42
9087.64
9084.95
9082.33
9079.77
9077.29
9074.86
9072.5
9070.19
9067.94
9065.74
9063.59
9061.49
9059.43
9057.42
9055.45
9053.52
9051.63
9049.78
9047.97
9046.19
9044.45
9042.74
9041.06
9039.42
9037.8
9036.21
9034.65
9033.12
9031.62
9030.14
9028.68
9027.25
9025.85
9024.46
9023.1
9021.77
9020.45
9019.15
9017.87
9016.62
9015.38
9014.16
9012.95
9011.77
9010.6
9009.45
9008.32
9007.2
9006.09
9005.01
9003.93
9002.87
9001.83
9000.8
8999.78
8998.77
8997.78
8996.8
8995.84
8994.88
8993.94
8993
8992.08
8991.17
8990.27
8989.39
8988.51
8987.64
8986.78
8985.93
8985.09
8984.26
8983.44
8982.63
8981.82
8981.03
8980.24
8979.46
8978.69
8977.93
8977.17
8976.43
8975.69
8974.95
8974.23
8973.51
8972.8
8972.09
8971.4
8970.7
8970.02
8969.34
8968.67
8968
8967.34
8966.68
8966.04
8965.39
8964.75
8964.12
8963.49
8962.87
8962.26
8961.65
8961.04
8960.44
8959.84
8959.25
8958.66
8958.08
8957.5
8956.93
8956.36
8955.79
8955.23
8954.68
8954.13
8953.58
8953.03
8952.49
8951.96
8951.43
8950.9
8950.37
8949.85
8949.34
8948.82
8948.31
8947.8
8947.3
8946.8
8946.3
8945.81
8945.32
8944.83
8944.35
8943.87
8943.39
8942.92
8942.44
8941.98
8941.51
8941.05
8940.59
8940.13
8939.67
8939.22
8938.77
8938.33
8937.88
8937.44
8937
8936.57
8936.13
8935.7
8935.27
8934.84
8934.42
8934
8933.58
8933.16
8932.7
8932.16
8931.52
8930.77
8929.87
8928.82
8927.57
8926.12
8924.41
8922.42
8920.11
8917.43
8914.35
8910.81
8906.77
8902.18
8897.01
8891.2
8884.74
8877.61
8869.79
8861.34
8852.31
8842.87
8833.25
8823.79
8814.94
8807.25
8801.26
8797.46
8796.13
8797.32
8800.79
8806.08
8812.55
8819.49
8826.16
8831.72
8835.2
9491.61
9434.93
9389.01
9351.51
9320.63
9294.98
9273.45
9255.19
9239.53
9225.95
9214.05
9203.5
9194.07
9185.55
9177.8
9170.69
9164.12
9158.02
9152.32
9146.97
9141.93
9137.15
9132.62
9128.3
9124.17
9120.22
9116.43
9112.79
9109.29
9105.9
9102.64
9099.48
9096.42
9093.46
9090.58
9087.79
9085.07
9082.44
9079.87
9077.37
9074.93
9072.55
9070.24
9067.97
9065.76
9063.6
9061.5
9059.43
9057.41
9055.44
9053.5
9051.61
9049.76
9047.94
9046.16
9044.41
9042.7
9041.02
9039.37
9037.75
9036.16
9034.6
9033.06
9031.56
9030.08
9028.62
9027.19
9025.78
9024.4
9023.04
9021.7
9020.38
9019.08
9017.8
9016.54
9015.31
9014.08
9012.88
9011.7
9010.53
9009.38
9008.24
9007.12
9006.02
9004.93
9003.86
9002.8
9001.75
9000.72
8999.7
8998.7
8997.71
8996.73
8995.76
8994.81
8993.86
8992.93
8992.01
8991.1
8990.2
8989.31
8988.43
8987.56
8986.71
8985.86
8985.02
8984.19
8983.37
8982.55
8981.75
8980.96
8980.17
8979.39
8978.62
8977.86
8977.1
8976.35
8975.61
8974.88
8974.16
8973.44
8972.73
8972.02
8971.32
8970.63
8969.95
8969.27
8968.6
8967.93
8967.27
8966.61
8965.97
8965.32
8964.68
8964.05
8963.42
8962.8
8962.19
8961.58
8960.97
8960.37
8959.77
8959.18
8958.59
8958.01
8957.43
8956.86
8956.29
8955.73
8955.17
8954.61
8954.06
8953.51
8952.97
8952.43
8951.89
8951.36
8950.83
8950.31
8949.78
8949.27
8948.75
8948.24
8947.74
8947.23
8946.73
8946.24
8945.74
8945.25
8944.77
8944.28
8943.8
8943.32
8942.85
8942.38
8941.91
8941.44
8940.98
8940.52
8940.06
8939.61
8939.16
8938.71
8938.26
8937.82
8937.37
8936.93
8936.5
8936.06
8935.63
8935.2
8934.78
8934.35
8933.93
8933.51
8933.05
8932.51
8931.87
8931.1
8930.21
8929.14
8927.9
8926.43
8924.72
8922.72
8920.4
8917.71
8914.61
8911.06
8907.01
8902.41
8897.22
8891.4
8884.93
8877.78
8869.95
8861.48
8852.45
8843
8833.37
8823.9
8815.04
8807.34
8801.34
8797.52
8796.19
8797.37
8800.83
8806.1
8812.57
8819.51
8826.17
8831.73
8835.2
9506.51
9450.74
9405
9367.16
9335.62
9309.14
9286.71
9267.55
9251.01
9236.61
9223.95
9212.71
9202.65
9193.56
9185.29
9177.71
9170.72
9164.23
9158.18
9152.51
9147.17
9142.13
9137.36
9132.81
9128.48
9124.34
9120.38
9116.57
9112.92
9109.39
9105.99
9102.71
9099.54
9096.47
9093.49
9090.6
9087.8
9085.08
9082.43
9079.85
9077.34
9074.9
9072.52
9070.19
9067.92
9065.71
9063.55
9061.43
9059.36
9057.34
9055.36
9053.43
9051.53
9049.67
9047.85
9046.07
9044.32
9042.61
9040.93
9039.27
9037.65
9036.06
9034.5
9032.97
9031.46
9029.98
9028.52
9027.09
9025.69
9024.3
9022.94
9021.6
9020.28
9018.98
9017.71
9016.45
9015.21
9013.99
9012.79
9011.6
9010.43
9009.28
9008.15
9007.03
9005.93
9004.84
9003.77
9002.71
9001.66
9000.63
8999.61
8998.61
8997.62
8996.64
8995.67
8994.72
8993.77
8992.84
8991.92
8991.01
8990.11
8989.23
8988.35
8987.48
8986.62
8985.77
8984.93
8984.1
8983.28
8982.47
8981.67
8980.87
8980.09
8979.31
8978.54
8977.78
8977.02
8976.27
8975.53
8974.8
8974.08
8973.36
8972.65
8971.94
8971.25
8970.55
8969.87
8969.19
8968.52
8967.85
8967.19
8966.54
8965.89
8965.24
8964.61
8963.98
8963.35
8962.73
8962.11
8961.5
8960.89
8960.29
8959.7
8959.1
8958.52
8957.94
8957.36
8956.78
8956.22
8955.65
8955.09
8954.54
8953.98
8953.44
8952.89
8952.35
8951.82
8951.28
8950.76
8950.23
8949.71
8949.19
8948.68
8948.17
8947.66
8947.16
8946.66
8946.16
8945.67
8945.18
8944.69
8944.21
8943.73
8943.25
8942.78
8942.31
8941.84
8941.37
8940.91
8940.45
8939.99
8939.54
8939.08
8938.64
8938.19
8937.74
8937.3
8936.86
8936.43
8935.99
8935.56
8935.13
8934.71
8934.28
8933.86
8933.4
8932.85
8932.21
8931.44
8930.54
8929.47
8928.22
8926.75
8925.03
8923.02
8920.69
8917.99
8914.88
8911.31
8907.24
8902.63
8897.43
8891.6
8885.11
8877.94
8870.11
8861.63
8852.58
8843.12
8833.48
8824
8815.14
8807.43
8801.42
8797.59
8796.25
8797.42
8800.87
8806.13
8812.59
8819.52
8826.18
8831.74
8835.21
9517.59
9463.63
9418.7
9380.98
9349.15
9322.13
9299.03
9279.14
9261.88
9246.78
9233.45
9221.58
9210.94
9201.33
9192.58
9184.56
9177.16
9170.31
9163.93
9157.95
9152.34
9147.04
9142.03
9137.27
9132.74
9128.41
9124.28
9120.31
9116.51
9112.85
9109.32
9105.92
9102.63
9099.45
9096.38
9093.4
9090.5
9087.7
9084.97
9082.32
9079.74
9077.23
9074.78
9072.39
9070.07
9067.8
9065.58
9063.42
9061.3
9059.23
9057.21
9055.23
9053.29
9051.4
9049.54
9047.72
9045.94
9044.19
9042.47
9040.79
9039.14
9037.52
9035.93
9034.37
9032.84
9031.33
9029.85
9028.4
9026.97
9025.56
9024.18
9022.82
9021.48
9020.16
9018.86
9017.59
9016.33
9015.09
9013.87
9012.67
9011.49
9010.32
9009.17
9008.04
9006.92
9005.82
9004.73
9003.66
9002.6
9001.55
9000.52
8999.51
8998.5
8997.51
8996.53
8995.57
8994.61
8993.67
8992.74
8991.82
8990.91
8990.01
8989.13
8988.25
8987.38
8986.52
8985.68
8984.84
8984.01
8983.19
8982.38
8981.57
8980.78
8979.99
8979.22
8978.45
8977.68
8976.93
8976.18
8975.44
8974.71
8973.99
8973.27
8972.56
8971.86
8971.16
8970.47
8969.78
8969.1
8968.43
8967.77
8967.11
8966.45
8965.8
8965.16
8964.52
8963.89
8963.27
8962.64
8962.03
8961.42
8960.81
8960.21
8959.61
8959.02
8958.44
8957.85
8957.28
8956.7
8956.14
8955.57
8955.01
8954.46
8953.9
8953.36
8952.81
8952.27
8951.74
8951.21
8950.68
8950.15
8949.63
8949.12
8948.6
8948.09
8947.59
8947.08
8946.58
8946.09
8945.59
8945.1
8944.62
8944.13
8943.65
8943.18
8942.7
8942.23
8941.76
8941.3
8940.83
8940.37
8939.92
8939.46
8939.01
8938.56
8938.11
8937.67
8937.23
8936.79
8936.35
8935.92
8935.49
8935.06
8934.63
8934.21
8933.75
8933.2
8932.55
8931.78
8930.87
8929.8
8928.54
8927.06
8925.33
8923.32
8920.98
8918.27
8915.14
8911.57
8907.48
8902.86
8897.64
8891.79
8885.29
8878.11
8870.26
8861.77
8852.72
8843.25
8833.6
8824.11
8815.24
8807.51
8801.5
8797.66
8796.3
8797.46
8800.9
8806.16
8812.61
8819.54
8826.19
8831.75
8835.22
9525.18
9473.9
9430.3
9393.1
9361.28
9333.98
9310.42
9289.98
9272.12
9256.42
9242.51
9230.1
9218.94
9208.85
9199.65
9191.22
9183.45
9176.25
9169.56
9163.29
9157.41
9151.86
9146.62
9141.66
9136.93
9132.43
9128.12
9124.01
9120.06
9116.26
9112.61
9109.09
9105.69
9102.41
9099.23
9096.16
9093.18
9090.29
9087.49
9084.76
9082.11
9079.54
9077.02
9074.58
9072.19
9069.87
9067.6
9065.39
9063.22
9061.11
9059.04
9057.02
9055.05
9053.11
9051.22
9049.36
9047.54
9045.76
9044.01
9042.3
9040.62
9038.97
9037.36
9035.77
9034.21
9032.68
9031.17
9029.69
9028.24
9026.81
9025.41
9024.03
9022.67
9021.33
9020.01
9018.72
9017.44
9016.19
9014.95
9013.73
9012.53
9011.35
9010.19
9009.04
9007.9
9006.79
9005.69
9004.6
9003.53
9002.47
9001.43
9000.4
8999.39
8998.38
8997.39
8996.42
8995.45
8994.5
8993.56
8992.63
8991.71
8990.8
8989.9
8989.02
8988.14
8987.27
8986.42
8985.57
8984.73
8983.9
8983.08
8982.27
8981.47
8980.68
8979.89
8979.12
8978.35
8977.58
8976.83
8976.09
8975.35
8974.62
8973.89
8973.17
8972.46
8971.76
8971.06
8970.37
8969.69
8969.01
8968.34
8967.67
8967.01
8966.36
8965.71
8965.07
8964.43
8963.8
8963.18
8962.56
8961.94
8961.33
8960.72
8960.12
8959.53
8958.94
8958.35
8957.77
8957.19
8956.62
8956.05
8955.49
8954.93
8954.37
8953.82
8953.27
8952.73
8952.19
8951.66
8951.12
8950.6
8950.07
8949.55
8949.04
8948.52
8948.01
8947.51
8947
8946.5
8946.01
8945.51
8945.03
8944.54
8944.06
8943.58
8943.1
8942.62
8942.15
8941.68
8941.22
8940.76
8940.3
8939.84
8939.38
8938.93
8938.48
8938.04
8937.59
8937.15
8936.71
8936.28
8935.85
8935.41
8934.99
8934.56
8934.09
8933.54
8932.89
8932.12
8931.2
8930.13
8928.86
8927.38
8925.64
8923.62
8921.26
8918.54
8915.41
8911.82
8907.72
8903.08
8897.85
8891.99
8885.47
8878.28
8870.42
8861.92
8852.85
8843.37
8833.71
8824.22
8815.34
8807.6
8801.57
8797.73
8796.36
8797.51
8800.94
8806.19
8812.63
8819.56
8826.21
8831.76
8835.22
9101.54
9106.61
9113.93
9121.31
9126.75
9128.37
9124.76
9115.52
9101.48
9084.45
9066.48
9049.27
9033.93
9021
9010.7
9002.97
8997.64
8994.47
8993.13
8993.26
8994.5
8996.48
8998.88
9001.45
9004
9006.39
9008.55
9010.45
9012.07
9013.44
9014.54
9015.52
9016.53
9017.58
9018.67
9019.81
9020.99
9022.22
9023.5
9024.83
9026.22
9027.66
9029.16
9030.72
9032.35
9034.05
9035.82
9037.67
9039.59
9041.6
9043.7
9045.89
9048.18
9050.57
9053.07
9055.69
9058.44
9061.31
9064.33
9067.49
9070.81
9074.31
9077.98
9081.84
9085.92
9090.22
9094.76
9099.57
9104.66
9110.06
9115.8
9121.91
9128.42
9135.39
9142.85
9150.87
9159.52
9168.88
9179.03
9190.11
9202.26
9215.66
9230.55
9247.2
9266.02
9287.5
9312.33
9341.44
9376.09
9418.05
9469.74
9534.38
9615.92
9718.23
9841.31
9101.53
9106.61
9113.91
9121.3
9126.73
9128.33
9124.72
9115.47
9101.44
9084.42
9066.46
9049.28
9033.98
9021.11
9010.86
9003.2
8997.97
8994.89
8993.66
8993.91
8995.26
8997.35
8999.87
9002.55
9005.19
9007.67
9009.9
9011.86
9013.53
9014.95
9016.08
9017.09
9018.13
9019.21
9020.34
9021.51
9022.73
9023.99
9025.31
9026.68
9028.11
9029.59
9031.14
9032.75
9034.42
9036.17
9037.99
9039.89
9041.87
9043.94
9046.1
9048.35
9050.71
9053.17
9055.75
9058.44
9061.27
9064.23
9067.33
9070.59
9074.01
9077.61
9081.39
9085.37
9089.57
9094.01
9098.69
9103.65
9108.91
9114.48
9120.41
9126.72
9133.46
9140.66
9148.39
9156.69
9165.65
9175.35
9185.88
9197.38
9210
9223.91
9239.36
9256.64
9276.15
9298.36
9323.95
9353.77
9388.98
9431.08
9482.01
9544.08
9619.57
9709.38
9808.82
9101.53
9106.6
9113.9
9121.28
9126.7
9128.29
9124.67
9115.42
9101.39
9084.38
9066.45
9049.3
9034.03
9021.21
9011.02
9003.44
8998.29
8995.31
8994.19
8994.55
8996.02
8998.23
9000.86
9003.64
9006.37
9008.93
9011.24
9013.26
9014.98
9016.44
9017.61
9018.64
9019.72
9020.83
9021.99
9023.2
9024.45
9025.75
9027.11
9028.51
9029.98
9031.51
9033.1
9034.75
9036.47
9038.27
9040.14
9042.09
9044.13
9046.25
9048.47
9050.79
9053.21
9055.74
9058.38
9061.15
9064.06
9067.1
9070.29
9073.64
9077.15
9080.85
9084.74
9088.84
9093.16
9097.72
9102.54
9107.65
9113.06
9118.8
9124.9
9131.41
9138.35
9145.78
9153.75
9162.32
9171.57
9181.58
9192.45
9204.33
9217.35
9231.7
9247.64
9265.43
9285.47
9308.23
9334.32
9364.52
9399.84
9441.51
9491.01
9549.83
9619.01
9697.7
9780.12
9101.52
9106.59
9113.89
9121.26
9126.67
9128.26
9124.63
9115.37
9101.34
9084.34
9066.43
9049.31
9034.08
9021.31
9011.18
9003.67
8998.61
8995.73
8994.71
8995.19
8996.78
8999.1
9001.84
9004.72
9007.55
9010.19
9012.57
9014.65
9016.42
9017.92
9019.13
9020.19
9021.29
9022.44
9023.63
9024.87
9026.15
9027.49
9028.88
9030.33
9031.84
9033.4
9035.04
9036.73
9038.5
9040.35
9042.27
9044.27
9046.36
9048.54
9050.81
9053.19
9055.67
9058.27
9060.98
9063.83
9066.81
9069.93
9073.2
9076.64
9080.24
9084.04
9088.03
9092.24
9096.68
9101.36
9106.31
9111.55
9117.11
9123.01
9129.28
9135.97
9143.1
9150.74
9158.93
9167.75
9177.25
9187.55
9198.73
9210.93
9224.3
9239.04
9255.36
9273.57
9294
9317.12
9343.48
9373.77
9408.83
9449.65
9497.27
9552.55
9615.67
9684.93
9754.92
9101.51
9106.58
9113.88
9121.24
9126.64
9128.22
9124.58
9115.32
9101.3
9084.31
9066.41
9049.32
9034.13
9021.41
9011.34
9003.91
8998.93
8996.15
8995.24
8995.83
8997.53
8999.97
9002.82
9005.8
9008.72
9011.44
9013.89
9016.03
9017.85
9019.39
9020.63
9021.72
9022.85
9024.03
9025.25
9026.53
9027.85
9029.22
9030.65
9032.13
9033.68
9035.28
9036.96
9038.7
9040.51
9042.4
9044.37
9046.42
9048.56
9050.79
9053.13
9055.56
9058.11
9060.77
9063.55
9066.46
9069.51
9072.71
9076.06
9079.58
9083.28
9087.17
9091.26
9095.57
9100.12
9104.92
9109.99
9115.37
9121.06
9127.11
9133.54
9140.39
9147.71
9155.54
9163.94
9172.97
9182.71
9193.26
9204.71
9217.19
9230.86
9245.9
9262.54
9281.04
9301.75
9325.07
9351.49
9381.62
9416.14
9455.8
9501.27
9552.98
9610.52
9671.94
9732.66
9101.51
9106.57
9113.86
9121.22
9126.62
9128.18
9124.54
9115.27
9101.25
9084.27
9066.4
9049.33
9034.18
9021.51
9011.51
9004.14
8999.25
8996.57
8995.76
8996.47
8998.28
9000.84
9003.79
9006.87
9009.88
9012.69
9015.2
9017.4
9019.27
9020.85
9022.12
9023.24
9024.4
9025.61
9026.87
9028.17
9029.52
9030.93
9032.39
9033.91
9035.5
9037.14
9038.85
9040.64
9042.49
9044.43
9046.44
9048.55
9050.74
9053.02
9055.41
9057.9
9060.5
9063.23
9066.07
9069.05
9072.18
9075.45
9078.88
9082.48
9086.26
9090.24
9094.43
9098.84
9103.49
9108.4
9113.59
9119.08
9124.91
9131.09
9137.67
9144.68
9152.16
9160.17
9168.75
9177.98
9187.94
9198.7
9210.38
9223.11
9237.02
9252.3
9269.17
9287.87
9308.73
9332.1
9358.42
9388.18
9421.94
9460.23
9503.46
9551.68
9604.24
9659.17
9712.74
9101.5
9106.56
9113.85
9121.2
9126.59
9128.15
9124.49
9115.23
9101.2
9084.23
9066.38
9049.35
9034.23
9021.61
9011.67
9004.38
8999.57
8996.99
8996.29
8997.1
8999.03
9001.7
9004.76
9007.94
9011.04
9013.92
9016.5
9018.76
9020.68
9022.3
9023.6
9024.75
9025.94
9027.18
9028.46
9029.8
9031.18
9032.62
9034.12
9035.68
9037.3
9038.98
9040.73
9042.56
9044.46
9046.43
9048.5
9050.64
9052.88
9055.22
9057.66
9060.21
9062.87
9065.65
9068.56
9071.61
9074.79
9078.14
9081.64
9085.32
9089.19
9093.25
9097.53
9102.03
9106.78
9111.79
9117.09
9122.71
9128.65
9134.97
9141.68
9148.83
9156.47
9164.63
9173.38
9182.79
9192.92
9203.88
9215.75
9228.67
9242.78
9258.24
9275.26
9294.08
9314.97
9338.26
9364.33
9393.58
9426.42
9463.22
9504.17
9549.12
9597.26
9646.78
9694.72
9101.5
9106.55
9113.84
9121.18
9126.56
9128.11
9124.45
9115.18
9101.16
9084.2
9066.37
9049.36
9034.28
9021.71
9011.83
9004.61
8999.89
8997.4
8996.81
8997.74
8999.78
9002.55
9005.72
9009
9012.19
9015.15
9017.8
9020.11
9022.08
9023.74
9025.07
9026.25
9027.46
9028.73
9030.04
9031.41
9032.83
9034.3
9035.83
9037.42
9039.08
9040.8
9042.59
9044.46
9046.4
9048.42
9050.52
9052.72
9055
9057.39
9059.88
9062.48
9065.2
9068.04
9071.01
9074.12
9077.37
9080.78
9084.36
9088.11
9092.05
9096.2
9100.56
9105.15
9109.99
9115.11
9120.51
9126.23
9132.29
9138.72
9145.56
9152.84
9160.61
9168.92
9177.82
9187.38
9197.67
9208.78
9220.81
9233.89
9248.13
9263.71
9280.82
9299.67
9320.5
9343.61
9369.31
9397.91
9429.73
9464.98
9503.72
9545.63
9589.88
9634.86
9678.23
9101.49
9106.55
9113.82
9121.16
9126.53
9128.07
9124.4
9115.13
9101.11
9084.16
9066.35
9049.37
9034.34
9021.81
9011.99
9004.85
9000.21
8997.82
8997.33
8998.37
9000.52
9003.41
9006.68
9010.06
9013.33
9016.36
9019.08
9021.45
9023.47
9025.16
9026.53
9027.73
9028.97
9030.27
9031.61
9033.01
9034.46
9035.96
9037.53
9039.15
9040.84
9042.6
9044.43
9046.33
9048.31
9050.37
9052.52
9054.76
9057.09
9059.53
9062.07
9064.72
9067.49
9070.39
9073.41
9076.58
9079.9
9083.37
9087.02
9090.84
9094.86
9099.08
9103.52
9108.2
9113.13
9118.33
9123.83
9129.65
9135.82
9142.36
9149.31
9156.71
9164.6
9173.03
9182.06
9191.75
9202.17
9213.42
9225.57
9238.76
9253.1
9268.75
9285.87
9304.67
9325.37
9348.21
9373.43
9401.31
9432.03
9465.73
9502.33
9541.45
9582.27
9623.42
9663
9101.48
9106.54
9113.81
9121.14
9126.51
9128.04
9124.36
9115.08
9101.06
9084.13
9066.33
9049.38
9034.39
9021.91
9012.15
9005.08
9000.53
8998.23
8997.85
8999
9001.26
9004.26
9007.63
9011.11
9014.46
9017.57
9020.35
9022.77
9024.84
9026.57
9027.97
9029.2
9030.47
9031.79
9033.16
9034.59
9036.07
9037.6
9039.2
9040.86
9042.58
9044.38
9046.24
9048.18
9050.2
9052.3
9054.49
9056.78
9059.15
9061.64
9064.22
9066.93
9069.75
9072.7
9075.78
9079
9082.38
9085.92
9089.63
9093.52
9097.6
9101.9
9106.42
9111.17
9116.18
9121.47
9127.06
9132.97
9139.23
9145.87
9152.93
9160.43
9168.43
9176.97
9186.11
9195.91
9206.44
9217.78
9230.03
9243.29
9257.68
9273.34
9290.43
9309.13
9329.61
9352.1
9376.79
9403.86
9433.46
9465.62
9500.2
9536.77
9574.58
9612.43
9648.82
9101.48
9106.53
9113.8
9121.12
9126.48
9128
9124.31
9115.03
9101.02
9084.09
9066.32
9049.4
9034.44
9022.01
9012.31
9005.32
9000.85
8998.65
8998.37
8999.62
9002
9005.1
9008.58
9012.15
9015.59
9018.77
9021.62
9024.09
9026.2
9027.97
9029.4
9030.65
9031.95
9033.3
9034.7
9036.15
9037.66
9039.23
9040.86
9042.55
9044.31
9046.13
9048.03
9050.01
9052.07
9054.21
9056.44
9058.77
9061.19
9063.71
9066.35
9069.09
9071.97
9074.97
9078.1
9081.38
9084.82
9088.41
9092.18
9096.14
9100.29
9104.65
9109.24
9114.07
9119.16
9124.53
9130.2
9136.19
9142.54
9149.27
9156.41
9164.01
9172.1
9180.74
9189.97
9199.85
9210.47
9221.88
9234.19
9247.49
9261.89
9277.52
9294.52
9313.05
9333.27
9355.34
9379.43
9405.68
9434.14
9464.81
9497.48
9531.73
9566.87
9601.87
9635.52
9101.47
9106.52
9113.79
9121.1