/*--------------------------------*- C++ -*----------------------------------*\
  =========                 |
  \\      /  F ield         | OpenFOAM: The Open Source CFD Toolbox
   \\    /   O peration     | Website:  https://openfoam.org
    \\  /    A nd           | Version:  7
     \\/     M anipulation  |
\*---------------------------------------------------------------------------*/
FoamFile
{
    version     2.0;
    format      ascii;
    class       volVectorField;
    location    "0.5/solid";
    object      qSolid;
}
// * * * * * * * * * * * * * * * * * * * * * * * * * * * * * * * * * * * * * //

dimensions      [0 -1 0 1 0 0 0];

internalField   nonuniform List<vector> 
1600
(
(45.4501 0.000182829 -0)
(45.4501 -1.85402e-05 -0)
(45.45 -9.37256e-05 -0)
(45.4499 2.93802e-05 -0)
(45.4499 4.18163e-06 -0)
(45.4499 -8.53686e-05 -0)
(45.4498 1.63432e-05 -0)
(45.45 0.000101834 -0)
(45.4502 4.31456e-05 -0)
(45.45 -5.42788e-05 -0)
(45.4498 -8.30339e-05 -0)
(45.4498 -2.65121e-05 -0)
(45.4501 4.29535e-05 -0)
(45.4503 5.81015e-05 -0)
(45.4502 2.61345e-05 -0)
(45.45 -9.09356e-06 -0)
(45.4498 -2.64378e-05 -0)
(45.4498 -3.25229e-05 -0)
(45.4499 -3.21303e-05 -0)
(45.4501 -1.9586e-05 -0)
(45.4502 4.33621e-06 -0)
(45.4503 2.65705e-05 -0)
(45.4503 3.56712e-05 -0)
(45.4502 3.2098e-05 -0)
(45.4501 2.34986e-05 -0)
(45.4499 1.6219e-05 -0)
(45.4498 1.25581e-05 -0)
(45.4497 1.16374e-05 -0)
(45.4496 1.08135e-05 -0)
(45.4495 7.87358e-06 -0)
(45.4494 3.02689e-06 -0)
(45.4494 -1.40435e-06 -0)
(45.4494 -3.22295e-06 -0)
(45.4494 -2.112e-06 -0)
(45.4494 4.72831e-07 -0)
(45.4494 2.63594e-06 -0)
(45.4494 3.27123e-06 -0)
(45.4494 2.43062e-06 -0)
(45.4494 9.31806e-07 -0)
(45.4493 -3.78364e-08 -0)
(45.4498 0.000210845 -0)
(45.4498 0.000182522 -0)
(45.4501 1.04093e-05 -0)
(45.45 -9.15635e-05 -0)
(45.4498 -5.25811e-05 -0)
(45.4499 -2.27485e-05 -0)
(45.4499 8.48289e-05 -0)
(45.4501 0.000106239 -0)
(45.45 -1.18087e-05 -0)
(45.4498 -0.000100064 -0)
(45.4498 -7.74489e-05 -0)
(45.45 8.13914e-06 -0)
(45.4502 7.09105e-05 -0)
(45.4502 6.88692e-05 -0)
(45.4501 2.51004e-05 -0)
(45.4499 -2.09196e-05 -0)
(45.4498 -4.97402e-05 -0)
(45.4498 -5.81245e-05 -0)
(45.4499 -4.56993e-05 -0)
(45.4501 -1.49624e-05 -0)
(45.4503 2.20852e-05 -0)
(45.4503 4.82421e-05 -0)
(45.4503 5.42342e-05 -0)
(45.4502 4.4637e-05 -0)
(45.4501 3.10862e-05 -0)
(45.4499 2.20951e-05 -0)
(45.4498 1.89791e-05 -0)
(45.4497 1.80965e-05 -0)
(45.4496 1.51677e-05 -0)
(45.4495 8.72889e-06 -0)
(45.4494 9.81064e-07 -0)
(45.4494 -4.33561e-06 -0)
(45.4494 -5.05462e-06 -0)
(45.4494 -1.98433e-06 -0)
(45.4494 2.16829e-06 -0)
(45.4494 4.90951e-06 -0)
(45.4494 5.28665e-06 -0)
(45.4494 3.82043e-06 -0)
(45.4493 1.69754e-06 -0)
(45.4493 1.35358e-07 -0)
(45.4499 6.37629e-05 -0)
(45.4499 0.000118473 -0)
(45.4497 9.87018e-05 -0)
(45.4498 -8.95008e-05 -0)
(45.45 -6.60275e-06 -0)
(45.45 0.000101965 -0)
(45.4499 5.53977e-05 -0)
(45.4499 -3.34528e-05 -0)
(45.45 -7.64048e-05 -0)
(45.4499 -4.26736e-05 -0)
(45.4499 2.18719e-05 -0)
(45.45 5.37316e-05 -0)
(45.4502 4.49816e-05 -0)
(45.4502 1.90675e-05 -0)
(45.4501 -8.07042e-06 -0)
(45.4499 -3.21035e-05 -0)
(45.4498 -4.63855e-05 -0)
(45.4498 -4.06394e-05 -0)
(45.45 -1.51114e-05 -0)
(45.4501 1.55661e-05 -0)
(45.4503 3.53431e-05 -0)
(45.4503 3.88434e-05 -0)
(45.4503 3.11437e-05 -0)
(45.4502 2.07576e-05 -0)
(45.45 1.40277e-05 -0)
(45.4499 1.24255e-05 -0)
(45.4498 1.28357e-05 -0)
(45.4497 1.10954e-05 -0)
(45.4496 5.90505e-06 -0)
(45.4495 -4.63629e-07 -0)
(45.4494 -4.67278e-06 -0)
(45.4494 -5.10893e-06 -0)
(45.4494 -2.6264e-06 -0)
(45.4494 6.80167e-07 -0)
(45.4494 3.11191e-06 -0)
(45.4494 4.10521e-06 -0)
(45.4494 3.92713e-06 -0)
(45.4494 3.03602e-06 -0)
(45.4493 1.81934e-06 -0)
(45.4493 5.18412e-07 -0)
(45.4498 4.1634e-05 -0)
(45.4499 -0.000106349 -0)
(45.4498 1.82913e-05 -0)
(45.4499 8.74959e-05 -0)
(45.45 7.67101e-05 -0)
(45.45 3.43922e-05 -0)
(45.4498 -3.14812e-05 -0)
(45.4499 -5.34789e-05 -0)
(45.45 -2.6045e-05 -0)
(45.4499 1.03221e-05 -0)
(45.4499 3.31291e-05 -0)
(45.45 3.81107e-05 -0)
(45.4501 2.83251e-05 -0)
(45.4502 6.3361e-06 -0)
(45.4501 -2.10651e-05 -0)
(45.4499 -3.99357e-05 -0)
(45.4498 -3.96095e-05 -0)
(45.4499 -2.13505e-05 -0)
(45.45 4.04652e-06 -0)
(45.4502 2.44565e-05 -0)
(45.4503 3.29456e-05 -0)
(45.4503 3.01282e-05 -0)
(45.4503 2.2261e-05 -0)
(45.4502 1.59828e-05 -0)
(45.45 1.37342e-05 -0)
(45.4499 1.34399e-05 -0)
(45.4498 1.16974e-05 -0)
(45.4497 7.09358e-06 -0)
(45.4496 1.08077e-06 -0)
(45.4495 -3.60467e-06 -0)
(45.4494 -5.19863e-06 -0)
(45.4494 -3.94509e-06 -0)
(45.4494 -1.3884e-06 -0)
(45.4494 1.03531e-06 -0)
(45.4494 2.73586e-06 -0)
(45.4494 3.69205e-06 -0)
(45.4494 3.91777e-06 -0)
(45.4494 3.38417e-06 -0)
(45.4493 2.18257e-06 -0)
(45.4493 7.64047e-07 -0)
(45.4498 3.98972e-05 -0)
(45.4499 1.05391e-05 -0)
(45.4499 4.37233e-05 -0)
(45.4499 7.17589e-05 -0)
(45.4499 3.13669e-05 -0)
(45.4499 -1.0458e-05 -0)
(45.4498 -2.81035e-05 -0)
(45.4499 -2.19927e-05 -0)
(45.4501 -6.84892e-07 -0)
(45.45 2.08836e-05 -0)
(45.4499 3.377e-05 -0)
(45.45 3.17094e-05 -0)
(45.4501 1.40829e-05 -0)
(45.4502 -1.05844e-05 -0)
(45.4501 -3.01361e-05 -0)
(45.4499 -3.55865e-05 -0)
(45.4498 -2.52109e-05 -0)
(45.4499 -4.93408e-06 -0)
(45.45 1.51019e-05 -0)
(45.4502 2.66424e-05 -0)
(45.4503 2.80407e-05 -0)
(45.4503 2.35771e-05 -0)
(45.4503 1.87414e-05 -0)
(45.4502 1.6169e-05 -0)
(45.45 1.50094e-05 -0)
(45.4499 1.29676e-05 -0)
(45.4498 8.73715e-06 -0)
(45.4497 3.03855e-06 -0)
(45.4496 -2.13639e-06 -0)
(45.4495 -5.05826e-06 -0)
(45.4494 -5.28873e-06 -0)
(45.4494 -3.61981e-06 -0)
(45.4494 -1.25555e-06 -0)
(45.4494 9.46976e-07 -0)
(45.4494 2.63119e-06 -0)
(45.4494 3.64235e-06 -0)
(45.4494 3.83466e-06 -0)
(45.4494 3.24462e-06 -0)
(45.4493 2.09662e-06 -0)
(45.4493 7.99965e-07 -0)
(45.4498 6.43869e-05 -0)
(45.4499 6.08661e-05 -0)
(45.4499 3.08366e-05 -0)
(45.4499 1.67809e-05 -0)
(45.4499 3.03757e-07 -0)
(45.4499 -1.20387e-05 -0)
(45.4498 -1.24816e-05 -0)
(45.4499 -2.51799e-06 -0)
(45.4501 1.44881e-05 -0)
(45.45 2.82015e-05 -0)
(45.4499 2.97769e-05 -0)
(45.45 1.80057e-05 -0)
(45.4501 -2.00009e-06 -0)
(45.4502 -2.11259e-05 -0)
(45.45 -3.03809e-05 -0)
(45.4499 -2.56778e-05 -0)
(45.4498 -1.0337e-05 -0)
(45.4499 7.4148e-06 -0)
(45.45 2.00912e-05 -0)
(45.4502 2.48514e-05 -0)
(45.4503 2.36579e-05 -0)
(45.4503 2.06058e-05 -0)
(45.4503 1.84843e-05 -0)
(45.4502 1.71847e-05 -0)
(45.45 1.50088e-05 -0)
(45.4499 1.09126e-05 -0)
(45.4498 5.4326e-06 -0)
(45.4496 3.32179e-08 -0)
(45.4496 -3.96252e-06 -0)
(45.4495 -5.88919e-06 -0)
(45.4494 -5.74344e-06 -0)
(45.4494 -4.04897e-06 -0)
(45.4494 -1.6334e-06 -0)
(45.4494 6.99583e-07 -0)
(45.4494 2.41165e-06 -0)
(45.4494 3.26674e-06 -0)
(45.4494 3.27118e-06 -0)
(45.4494 2.62622e-06 -0)
(45.4493 1.67672e-06 -0)
(45.4493 6.58069e-07 -0)
(45.4498 4.3926e-05 -0)
(45.4498 3.84181e-05 -0)
(45.4499 1.44255e-05 -0)
(45.4498 -2.88528e-06 -0)
(45.4499 -9.60695e-06 -0)
(45.4499 -8.73269e-06 -0)
(45.4498 5.97709e-07 -0)
(45.45 1.31768e-05 -0)
(45.4501 2.34371e-05 -0)
(45.45 2.63915e-05 -0)
(45.4499 1.89184e-05 -0)
(45.4499 3.01698e-06 -0)
(45.4501 -1.44069e-05 -0)
(45.4501 -2.50707e-05 -0)
(45.4501 -2.43222e-05 -0)
(45.4499 -1.35631e-05 -0)
(45.4499 1.32912e-06 -0)
(45.4499 1.38552e-05 -0)
(45.45 2.06063e-05 -0)
(45.4502 2.22012e-05 -0)
(45.4503 2.12671e-05 -0)
(45.4503 1.9993e-05 -0)
(45.4503 1.89216e-05 -0)
(45.4502 1.71601e-05 -0)
(45.45 1.37125e-05 -0)
(45.4499 8.65596e-06 -0)
(45.4498 3.12273e-06 -0)
(45.4496 -1.62199e-06 -0)
(45.4496 -4.87921e-06 -0)
(45.4495 -6.45279e-06 -0)
(45.4494 -6.35202e-06 -0)
(45.4494 -4.81061e-06 -0)
(45.4494 -2.42368e-06 -0)
(45.4494 -1.19904e-08 -0)
(45.4494 1.72687e-06 -0)
(45.4494 2.49743e-06 -0)
(45.4494 2.44345e-06 -0)
(45.4494 1.88622e-06 -0)
(45.4493 1.2011e-06 -0)
(45.4493 4.54925e-07 -0)
(45.4498 1.34259e-05 -0)
(45.4498 1.09937e-05 -0)
(45.4499 2.24684e-06 -0)
(45.4498 -6.39947e-06 -0)
(45.4499 -6.06137e-06 -0)
(45.4499 8.21565e-07 -0)
(45.4498 1.11311e-05 -0)
(45.45 2.01108e-05 -0)
(45.4501 2.31224e-05 -0)
(45.45 1.76728e-05 -0)
(45.4499 4.88617e-06 -0)
(45.4499 -1.00943e-05 -0)
(45.4501 -2.07263e-05 -0)
(45.4501 -2.2542e-05 -0)
(45.4501 -1.54605e-05 -0)
(45.4499 -3.52376e-06 -0)
(45.4499 7.9913e-06 -0)
(45.4499 1.56652e-05 -0)
(45.45 1.91616e-05 -0)
(45.4502 2.01503e-05 -0)
(45.4503 2.01738e-05 -0)
(45.4503 1.96587e-05 -0)
(45.4503 1.83234e-05 -0)
(45.4502 1.57374e-05 -0)
(45.45 1.17559e-05 -0)
(45.4499 6.80899e-06 -0)
(45.4497 1.83215e-06 -0)
(45.4496 -2.27395e-06 -0)
(45.4496 -5.09059e-06 -0)
(45.4495 -6.56053e-06 -0)
(45.4494 -6.6704e-06 -0)
(45.4494 -5.48324e-06 -0)
(45.4494 -3.39337e-06 -0)
(45.4494 -1.12699e-06 -0)
(45.4494 5.95595e-07 -0)
(45.4494 1.438e-06 -0)
(45.4494 1.54976e-06 -0)
(45.4494 1.25334e-06 -0)
(45.4493 8.43698e-07 -0)
(45.4493 3.04663e-07 -0)
(45.4498 -4.97549e-06 -0)
(45.4498 -5.53804e-06 -0)
(45.4499 -3.86235e-06 -0)
(45.4498 -2.10481e-06 -0)
(45.4499 2.53642e-06 -0)
(45.4499 9.68795e-06 -0)
(45.4498 1.63478e-05 -0)
(45.45 1.8786e-05 -0)
(45.4501 1.46464e-05 -0)
(45.45 4.52017e-06 -0)
(45.4498 -8.03935e-06 -0)
(45.4499 -1.78581e-05 -0)
(45.4501 -2.08871e-05 -0)
(45.4501 -1.64935e-05 -0)
(45.4501 -7.33435e-06 -0)
(45.4499 2.6537e-06 -0)
(45.4499 1.04897e-05 -0)
(45.4499 1.51955e-05 -0)
(45.45 1.74881e-05 -0)
(45.4502 1.86003e-05 -0)
(45.4503 1.8993e-05 -0)
(45.4503 1.83195e-05 -0)
(45.4503 1.63312e-05 -0)
(45.4502 1.32104e-05 -0)
(45.45 9.32296e-06 -0)
(45.4499 5.07104e-06 -0)
(45.4497 1.01247e-06 -0)
(45.4496 -2.2929e-06 -0)
(45.4495 -4.59661e-06 -0)
(45.4495 -5.92014e-06 -0)
(45.4494 -6.27065e-06 -0)
(45.4494 -5.61048e-06 -0)
(45.4494 -4.11367e-06 -0)
(45.4494 -2.28862e-06 -0)
(45.4494 -7.35731e-07 -0)
(45.4494 2.08278e-07 -0)
(45.4494 6.04636e-07 -0)
(45.4494 6.88427e-07 -0)
(45.4493 5.82911e-07 -0)
(45.4493 2.35119e-07 -0)
(45.4498 -9.0394e-06 -0)
(45.4498 -7.58913e-06 -0)
(45.4499 -2.8991e-06 -0)
(45.4498 3.13495e-06 -0)
(45.4499 8.79563e-06 -0)
(45.45 1.32117e-05 -0)
(45.4498 1.41048e-05 -0)
(45.45 1.02203e-05 -0)
(45.4501 1.91882e-06 -0)
(45.4499 -8.26544e-06 -0)
(45.4498 -1.65178e-05 -0)
(45.4499 -1.97547e-05 -0)
(45.4501 -1.70907e-05 -0)
(45.4502 -1.01269e-05 -0)
(45.4501 -1.76758e-06 -0)
(45.4499 5.57081e-06 -0)
(45.4499 1.08852e-05 -0)
(45.4499 1.42162e-05 -0)
(45.45 1.60609e-05 -0)
(45.4502 1.70061e-05 -0)
(45.4503 1.71068e-05 -0)
(45.4503 1.59253e-05 -0)
(45.4503 1.33672e-05 -0)
(45.4502 9.96089e-06 -0)
(45.45 6.37364e-06 -0)
(45.4499 2.99975e-06 -0)
(45.4497 1.07665e-07 -0)
(45.4496 -2.08631e-06 -0)
(45.4495 -3.58174e-06 -0)
(45.4495 -4.54218e-06 -0)
(45.4494 -5.02155e-06 -0)
(45.4494 -4.9053e-06 -0)
(45.4494 -4.16025e-06 -0)
(45.4494 -3.03382e-06 -0)
(45.4494 -1.90607e-06 -0)
(45.4494 -1.01853e-06 -0)
(45.4494 -3.93499e-07 -0)
(45.4494 7.1001e-08 -0)
(45.4493 3.02318e-07 -0)
(45.4493 1.91687e-07 -0)
(45.4498 -5.7477e-06 -0)
(45.4498 -2.94767e-06 -0)
(45.4499 1.29203e-06 -0)
(45.4498 6.06903e-06 -0)
(45.4499 8.96176e-06 -0)
(45.45 9.16634e-06 -0)
(45.4498 5.2208e-06 -0)
(45.45 -2.02663e-06 -0)
(45.4501 -1.03455e-05 -0)
(45.4499 -1.69789e-05 -0)
(45.4498 -1.96693e-05 -0)
(45.4499 -1.77864e-05 -0)
(45.4501 -1.23718e-05 -0)
(45.4502 -5.36682e-06 -0)
(45.4501 1.32843e-06 -0)
(45.4499 6.66798e-06 -0)
(45.4499 1.06072e-05 -0)
(45.4499 1.33266e-05 -0)
(45.45 1.48129e-05 -0)
(45.4502 1.524e-05 -0)
(45.4503 1.47174e-05 -0)
(45.4503 1.30188e-05 -0)
(45.4503 1.01167e-05 -0)
(45.4502 6.58027e-06 -0)
(45.45 3.2113e-06 -0)
(45.4499 5.30793e-07 -0)
(45.4497 -1.24553e-06 -0)
(45.4496 -2.15467e-06 -0)
(45.4495 -2.53563e-06 -0)
(45.4495 -2.82814e-06 -0)
(45.4494 -3.20206e-06 -0)
(45.4494 -3.48887e-06 -0)
(45.4494 -3.47407e-06 -0)
(45.4494 -3.14847e-06 -0)
(45.4494 -2.63791e-06 -0)
(45.4494 -2.01403e-06 -0)
(45.4494 -1.31578e-06 -0)
(45.4494 -5.89395e-07 -0)
(45.4493 -5.60263e-08 -0)
(45.4493 1.09956e-07 -0)
(45.4498 -1.94325e-06 -0)
(45.4498 6.22773e-07 -0)
(45.4499 2.78298e-06 -0)
(45.4499 4.01046e-06 -0)
(45.4499 2.84739e-06 -0)
(45.4499 -6.98037e-07 -0)
(45.4498 -6.76177e-06 -0)
(45.45 -1.35226e-05 -0)
(45.4501 -1.87554e-05 -0)
(45.4499 -2.08305e-05 -0)
(45.4498 -1.92582e-05 -0)
(45.4499 -1.48019e-05 -0)
(45.4501 -8.88248e-06 -0)
(45.4502 -2.81135e-06 -0)
(45.4501 2.51108e-06 -0)
(45.45 6.70967e-06 -0)
(45.4499 9.96797e-06 -0)
(45.4499 1.23499e-05 -0)
(45.45 1.3476e-05 -0)
(45.4502 1.33284e-05 -0)
(45.4503 1.22162e-05 -0)
(45.4503 1.01914e-05 -0)
(45.4503 7.23807e-06 -0)
(45.4502 3.77968e-06 -0)
(45.45 5.48326e-07 -0)
(45.4499 -1.81274e-06 -0)
(45.4497 -2.91745e-06 -0)
(45.4496 -2.79877e-06 -0)
(45.4495 -2.03629e-06 -0)
(45.4495 -1.42762e-06 -0)
(45.4494 -1.40473e-06 -0)
(45.4494 -1.84688e-06 -0)
(45.4494 -2.39814e-06 -0)
(45.4494 -2.79558e-06 -0)
(45.4494 -2.91244e-06 -0)
(45.4494 -2.64956e-06 -0)
(45.4494 -2.00922e-06 -0)
(45.4494 -1.17147e-06 -0)
(45.4493 -4.45954e-07 -0)
(45.4493 -2.64677e-08 -0)
(45.4498 -2.2137e-06 -0)
(45.4498 -1.02093e-06 -0)
(45.4499 -1.3042e-06 -0)
(45.4498 -3.32095e-06 -0)
(45.4499 -7.1863e-06 -0)
(45.4499 -1.21674e-05 -0)
(45.4498 -1.74198e-05 -0)
(45.4499 -2.13191e-05 -0)
(45.4501 -2.27808e-05 -0)
(45.4499 -2.14944e-05 -0)
(45.4498 -1.78931e-05 -0)
(45.4499 -1.29388e-05 -0)
(45.4501 -7.6334e-06 -0)
(45.4502 -2.57197e-06 -0)
(45.4501 1.90971e-06 -0)
(45.45 5.55527e-06 -0)
(45.4499 8.47324e-06 -0)
(45.4499 1.06637e-05 -0)
(45.45 1.156e-05 -0)
(45.4502 1.10439e-05 -0)
(45.4503 9.62117e-06 -0)
(45.4503 7.61755e-06 -0)
(45.4503 5.02416e-06 -0)
(45.4502 2.03547e-06 -0)
(45.45 -8.98126e-07 -0)
(45.4499 -3.19503e-06 -0)
(45.4497 -4.23483e-06 -0)
(45.4496 -3.75062e-06 -0)
(45.4495 -2.25267e-06 -0)
(45.4495 -7.83711e-07 -0)
(45.4494 -1.47811e-07 -0)
(45.4494 -4.56772e-07 -0)
(45.4494 -1.32713e-06 -0)
(45.4494 -2.26887e-06 -0)
(45.4494 -2.89971e-06 -0)
(45.4494 -2.97812e-06 -0)
(45.4494 -2.46063e-06 -0)
(45.4494 -1.61048e-06 -0)
(45.4493 -7.95328e-07 -0)
(45.4493 -1.87725e-07 -0)
(45.4498 -7.17689e-06 -0)
(45.4498 -7.64645e-06 -0)
(45.4499 -9.67585e-06 -0)
(45.4498 -1.30957e-05 -0)
(45.4499 -1.71868e-05 -0)
(45.4499 -2.11883e-05 -0)
(45.4498 -2.40694e-05 -0)
(45.4499 -2.4974e-05 -0)
(45.4501 -2.3867e-05 -0)
(45.4499 -2.11664e-05 -0)
(45.4498 -1.7405e-05 -0)
(45.4499 -1.31216e-05 -0)
(45.4501 -8.78893e-06 -0)
(45.4502 -4.57813e-06 -0)
(45.4501 -6.28511e-07 -0)
(45.45 2.67969e-06 -0)
(45.4499 5.36385e-06 -0)
(45.4499 7.51287e-06 -0)
(45.45 8.44935e-06 -0)
(45.4502 7.88903e-06 -0)
(45.4503 6.47963e-06 -0)
(45.4503 4.85809e-06 -0)
(45.4503 3.08917e-06 -0)
(45.4502 1.12445e-06 -0)
(45.45 -1.02556e-06 -0)
(45.4499 -3.10825e-06 -0)
(45.4497 -4.42135e-06 -0)
(45.4496 -4.26564e-06 -0)
(45.4495 -2.73676e-06 -0)
(45.4495 -8.0794e-07 -0)
(45.4494 4.27001e-07 -0)
(45.4494 4.83862e-07 -0)
(45.4494 -4.1771e-07 -0)
(45.4494 -1.68283e-06 -0)
(45.4494 -2.70155e-06 -0)
(45.4494 -3.08884e-06 -0)
(45.4494 -2.75403e-06 -0)
(45.4494 -1.95964e-06 -0)
(45.4493 -1.09669e-06 -0)
(45.4493 -3.38876e-07 -0)
(45.4498 -1.46555e-05 -0)
(45.4498 -1.60294e-05 -0)
(45.4499 -1.837e-05 -0)
(45.4498 -2.12253e-05 -0)
(45.4499 -2.37722e-05 -0)
(45.4499 -2.57536e-05 -0)
(45.4498 -2.63961e-05 -0)
(45.4499 -2.55436e-05 -0)
(45.4501 -2.35895e-05 -0)
(45.4499 -2.10385e-05 -0)
(45.4499 -1.81653e-05 -0)
(45.4499 -1.50479e-05 -0)
(45.4501 -1.18073e-05 -0)
(45.4502 -8.42297e-06 -0)
(45.4501 -4.98503e-06 -0)
(45.45 -2.0971e-06 -0)
(45.4499 2.20322e-07 -0)
(45.4499 2.38673e-06 -0)
(45.45 3.70138e-06 -0)
(45.4502 3.49209e-06 -0)
(45.4503 2.33376e-06 -0)
(45.4503 1.22688e-06 -0)
(45.4503 5.27809e-07 -0)
(45.4502 5.57066e-08 -0)
(45.45 -6.74429e-07 -0)
(45.4499 -1.96962e-06 -0)
(45.4497 -3.34367e-06 -0)
(45.4496 -3.8003e-06 -0)
(45.4496 -2.85944e-06 -0)
(45.4495 -1.07189e-06 -0)
(45.4494 4.71179e-07 -0)
(45.4494 9.64278e-07 -0)
(45.4494 3.07825e-07 -0)
(45.4494 -1.0097e-06 -0)
(45.4494 -2.27825e-06 -0)
(45.4494 -2.96671e-06 -0)
(45.4494 -2.90562e-06 -0)
(45.4494 -2.27125e-06 -0)
(45.4493 -1.39549e-06 -0)
(45.4493 -4.78497e-07 -0)
(45.4498 -2.12315e-05 -0)
(45.4498 -2.2301e-05 -0)
(45.4499 -2.36579e-05 -0)
(45.4498 -2.49398e-05 -0)
(45.4499 -2.56005e-05 -0)
(45.4499 -2.5877e-05 -0)
(45.4498 -2.529e-05 -0)
(45.45 -2.4046e-05 -0)
(45.4501 -2.24736e-05 -0)
(45.4499 -2.08563e-05 -0)
(45.4499 -1.92319e-05 -0)
(45.4499 -1.746e-05 -0)
(45.4501 -1.55264e-05 -0)
(45.4502 -1.32367e-05 -0)
(45.4501 -1.0499e-05 -0)
(45.45 -8.22073e-06 -0)
(45.4499 -6.59993e-06 -0)
(45.4499 -4.63054e-06 -0)
(45.45 -2.69162e-06 -0)
(45.4502 -2.02119e-06 -0)
(45.4503 -2.63348e-06 -0)
(45.4503 -3.36646e-06 -0)
(45.4503 -3.24638e-06 -0)
(45.4502 -2.21785e-06 -0)
(45.45 -1.13641e-06 -0)
(45.4499 -9.82254e-07 -0)
(45.4497 -1.78529e-06 -0)
(45.4496 -2.57049e-06 -0)
(45.4496 -2.39446e-06 -0)
(45.4495 -1.20892e-06 -0)
(45.4494 2.24478e-07 -0)
(45.4494 1.0183e-06 -0)
(45.4494 7.6291e-07 -0)
(45.4494 -3.29194e-07 -0)
(45.4494 -1.64798e-06 -0)
(45.4494 -2.58598e-06 -0)
(45.4494 -2.85571e-06 -0)
(45.4494 -2.49182e-06 -0)
(45.4493 -1.68601e-06 -0)
(45.4493 -6.20624e-07 -0)
(45.4498 -2.41436e-05 -0)
(45.4498 -2.41405e-05 -0)
(45.4499 -2.40531e-05 -0)
(45.4498 -2.38115e-05 -0)
(45.4499 -2.31796e-05 -0)
(45.4499 -2.25292e-05 -0)
(45.4498 -2.16037e-05 -0)
(45.45 -2.07223e-05 -0)
(45.4501 -2.00043e-05 -0)
(45.4499 -1.94954e-05 -0)
(45.4499 -1.91062e-05 -0)
(45.4499 -1.87154e-05 -0)
(45.4501 -1.84283e-05 -0)
(45.4502 -1.78406e-05 -0)
(45.4501 -1.62217e-05 -0)
(45.45 -1.46702e-05 -0)
(45.4499 -1.40216e-05 -0)
(45.4499 -1.27643e-05 -0)
(45.45 -1.03348e-05 -0)
(45.4502 -8.22524e-06 -0)
(45.4503 -7.62334e-06 -0)
(45.4503 -7.95515e-06 -0)
(45.4503 -7.60693e-06 -0)
(45.4502 -5.70896e-06 -0)
(45.45 -3.0419e-06 -0)
(45.4499 -1.16071e-06 -0)
(45.4497 -7.90674e-07 -0)
(45.4496 -1.30521e-06 -0)
(45.4496 -1.58426e-06 -0)
(45.4495 -1.06262e-06 -0)
(45.4494 -2.089e-08 -0)
(45.4494 8.2661e-07 -0)
(45.4494 9.23155e-07 -0)
(45.4494 1.96447e-07 -0)
(45.4494 -9.80496e-07 -0)
(45.4494 -2.05162e-06 -0)
(45.4494 -2.61741e-06 -0)
(45.4494 -2.55044e-06 -0)
(45.4493 -1.888e-06 -0)
(45.4493 -7.43832e-07 -0)
(45.4498 -2.27146e-05 -0)
(45.4498 -2.16176e-05 -0)
(45.4499 -2.03858e-05 -0)
(45.4498 -1.91484e-05 -0)
(45.4499 -1.79027e-05 -0)
(45.4499 -1.6836e-05 -0)
(45.4498 -1.59085e-05 -0)
(45.45 -1.54496e-05 -0)
(45.4501 -1.54852e-05 -0)
(45.4499 -1.59681e-05 -0)
(45.4499 -1.66935e-05 -0)
(45.4499 -1.75555e-05 -0)
(45.4501 -1.90851e-05 -0)
(45.4502 -2.09765e-05 -0)
(45.4501 -2.12954e-05 -0)
(45.45 -2.06491e-05 -0)
(45.4499 -2.09313e-05 -0)
(45.4499 -2.09039e-05 -0)
(45.4501 -1.87032e-05 -0)
(45.4502 -1.5077e-05 -0)
(45.4503 -1.23257e-05 -0)
(45.4503 -1.1483e-05 -0)
(45.4503 -1.10755e-05 -0)
(45.4502 -9.16602e-06 -0)
(45.45 -5.75358e-06 -0)
(45.4499 -2.51562e-06 -0)
(45.4497 -8.22311e-07 -0)
(45.4496 -5.99911e-07 -0)
(45.4496 -8.38956e-07 -0)
(45.4495 -6.86509e-07 -0)
(45.4494 -1.36602e-08 -0)
(45.4494 7.34737e-07 -0)
(45.4494 1.01755e-06 -0)
(45.4494 5.89555e-07 -0)
(45.4494 -3.98916e-07 -0)
(45.4494 -1.51985e-06 -0)
(45.4494 -2.31353e-06 -0)
(45.4494 -2.4936e-06 -0)
(45.4493 -1.97156e-06 -0)
(45.4493 -8.15472e-07 -0)
(45.4498 -1.8339e-05 -0)
(45.4498 -1.65712e-05 -0)
(45.4499 -1.47308e-05 -0)
(45.4498 -1.29545e-05 -0)
(45.4499 -1.1424e-05 -0)
(45.4499 -1.00574e-05 -0)
(45.4498 -9.05837e-06 -0)
(45.45 -8.68196e-06 -0)
(45.4501 -9.01325e-06 -0)
(45.4499 -1.01804e-05 -0)
(45.4499 -1.1897e-05 -0)
(45.4499 -1.37051e-05 -0)
(45.4501 -1.66355e-05 -0)
(45.4502 -2.13811e-05 -0)
(45.4501 -2.48123e-05 -0)
(45.45 -2.58089e-05 -0)
(45.4499 -2.68839e-05 -0)
(45.4499 -2.82153e-05 -0)
(45.4501 -2.72798e-05 -0)
(45.4502 -2.3075e-05 -0)
(45.4503 -1.78789e-05 -0)
(45.4503 -1.46072e-05 -0)
(45.4503 -1.32253e-05 -0)
(45.4502 -1.14498e-05 -0)
(45.45 -8.12271e-06 -0)
(45.4499 -4.32422e-06 -0)
(45.4497 -1.67176e-06 -0)
(45.4496 -6.37055e-07 -0)
(45.4496 -5.0969e-07 -0)
(45.4495 -3.65112e-07 -0)
(45.4494 1.78257e-07 -0)
(45.4494 8.8999e-07 -0)
(45.4494 1.28754e-06 -0)
(45.4494 1.04038e-06 -0)
(45.4494 1.64118e-07 -0)
(45.4494 -1.01315e-06 -0)
(45.4494 -2.00798e-06 -0)
(45.4494 -2.39933e-06 -0)
(45.4493 -1.98828e-06 -0)
(45.4493 -8.42508e-07 -0)
(45.4498 -1.33909e-05 -0)
(45.4498 -1.14198e-05 -0)
(45.4499 -9.39213e-06 -0)
(45.4498 -7.33969e-06 -0)
(45.4499 -5.57598e-06 -0)
(45.4499 -3.87285e-06 -0)
(45.4498 -2.66065e-06 -0)
(45.45 -1.99202e-06 -0)
(45.4501 -1.95531e-06 -0)
(45.4499 -3.14111e-06 -0)
(45.4499 -5.5635e-06 -0)
(45.4499 -7.93733e-06 -0)
(45.4501 -1.11494e-05 -0)
(45.4502 -1.79241e-05 -0)
(45.4501 -2.52009e-05 -0)
(45.45 -2.93164e-05 -0)
(45.4499 -3.17066e-05 -0)
(45.4499 -3.42584e-05 -0)
(45.4501 -3.52704e-05 -0)
(45.4502 -3.21316e-05 -0)
(45.4503 -2.56996e-05 -0)
(45.4503 -1.96423e-05 -0)
(45.4503 -1.58981e-05 -0)
(45.4502 -1.32025e-05 -0)
(45.45 -9.86384e-06 -0)
(45.4499 -6.00286e-06 -0)
(45.4497 -2.88644e-06 -0)
(45.4496 -1.24283e-06 -0)
(45.4496 -6.88338e-07 -0)
(45.4495 -3.65112e-07 -0)
(45.4494 2.47482e-07 -0)
(45.4494 1.06631e-06 -0)
(45.4494 1.64405e-06 -0)
(45.4494 1.573e-06 -0)
(45.4494 7.71934e-07 -0)
(45.4494 -4.75637e-07 -0)
(45.4494 -1.65709e-06 -0)
(45.4494 -2.25011e-06 -0)
(45.4493 -1.9563e-06 -0)
(45.4493 -8.43432e-07 -0)
(45.4498 -1.00929e-05 -0)
(45.4498 -8.26617e-06 -0)
(45.4499 -6.34643e-06 -0)
(45.4498 -4.25482e-06 -0)
(45.4499 -2.29347e-06 -0)
(45.4499 -2.70841e-07 -0)
(45.4498 1.20819e-06 -0)
(45.45 2.30536e-06 -0)
(45.4501 3.27789e-06 -0)
(45.4499 3.15033e-06 -0)
(45.4498 8.24389e-07 -0)
(45.4499 -1.69804e-06 -0)
(45.4501 -3.81744e-06 -0)
(45.4502 -1.03234e-05 -0)
(45.4501 -2.03688e-05 -0)
(45.45 -2.87507e-05 -0)
(45.4499 -3.39601e-05 -0)
(45.4499 -3.81265e-05 -0)
(45.4501 -4.12004e-05 -0)
(45.4502 -4.03475e-05 -0)
(45.4503 -3.48304e-05 -0)
(45.4503 -2.74989e-05 -0)
(45.4503 -2.12601e-05 -0)
(45.4502 -1.64574e-05 -0)
(45.45 -1.20479e-05 -0)
(45.4499 -7.72436e-06 -0)
(45.4497 -4.18877e-06 -0)
(45.4496 -2.05068e-06 -0)
(45.4496 -1.09951e-06 -0)
(45.4495 -5.77511e-07 -0)
(45.4494 1.23688e-07 -0)
(45.4494 1.06226e-06 -0)
(45.4494 1.84171e-06 -0)
(45.4494 1.98444e-06 -0)
(45.4494 1.30168e-06 -0)
(45.4494 3.35199e-08 -0)
(45.4494 -1.27363e-06 -0)
(45.4494 -2.02585e-06 -0)
(45.4494 -1.8559e-06 -0)
(45.4493 -8.16733e-07 -0)
(45.4498 -9.86745e-06 -0)
(45.4498 -8.42304e-06 -0)
(45.4499 -6.84738e-06 -0)
(45.4498 -5.03471e-06 -0)
(45.4499 -3.08098e-06 -0)
(45.4499 -8.82494e-07 -0)
(45.4498 8.80345e-07 -0)
(45.45 2.24285e-06 -0)
(45.4501 4.10555e-06 -0)
(45.4499 5.92996e-06 -0)
(45.4498 5.05509e-06 -0)
(45.4499 3.06388e-06 -0)
(45.4501 3.00245e-06 -0)
(45.4502 -4.19753e-07 -0)
(45.4501 -9.80663e-06 -0)
(45.45 -2.13246e-05 -0)
(45.4499 -3.06198e-05 -0)
(45.4499 -3.7783e-05 -0)
(45.4501 -4.32463e-05 -0)
(45.4502 -4.49798e-05 -0)
(45.4503 -4.18748e-05 -0)
(45.4503 -3.56335e-05 -0)
(45.4503 -2.86936e-05 -0)
(45.4502 -2.21594e-05 -0)
(45.45 -1.60401e-05 -0)
(45.4499 -1.04533e-05 -0)
(45.4497 -5.97804e-06 -0)
(45.4496 -3.07548e-06 -0)
(45.4496 -1.56851e-06 -0)
(45.4495 -7.61027e-07 -0)
(45.4494 2.44604e-08 -0)
(45.4494 1.00391e-06 -0)
(45.4494 1.88933e-06 -0)
(45.4494 2.19554e-06 -0)
(45.4494 1.64752e-06 -0)
(45.4494 4.20677e-07 -0)
(45.4494 -9.31291e-07 -0)
(45.4494 -1.77128e-06 -0)
(45.4494 -1.70008e-06 -0)
(45.4493 -7.62164e-07 -0)
(45.4498 -1.30426e-05 -0)
(45.4498 -1.20957e-05 -0)
(45.4499 -1.0974e-05 -0)
(45.4498 -9.69887e-06 -0)
(45.4499 -8.14268e-06 -0)
(45.4499 -6.13184e-06 -0)
(45.4498 -4.10767e-06 -0)
(45.45 -2.70008e-06 -0)
(45.4501 -8.07567e-07 -0)
(45.4499 2.56769e-06 -0)
(45.4498 4.02474e-06 -0)
(45.4499 3.51461e-06 -0)
(45.4501 5.86654e-06 -0)
(45.4502 7.18732e-06 -0)
(45.4501 2.6407e-06 -0)
(45.4499 -7.85075e-06 -0)
(45.4499 -2.008e-05 -0)
(45.4499 -3.14914e-05 -0)
(45.45 -4.05574e-05 -0)
(45.4502 -4.5163e-05 -0)
(45.4503 -4.47516e-05 -0)
(45.4503 -4.08907e-05 -0)
(45.4503 -3.53188e-05 -0)
(45.4502 -2.88153e-05 -0)
(45.45 -2.17494e-05 -0)
(45.4499 -1.48203e-05 -0)
(45.4497 -8.98964e-06 -0)
(45.4496 -4.89941e-06 -0)
(45.4496 -2.4886e-06 -0)
(45.4495 -1.129e-06 -0)
(45.4494 -9.87832e-08 -0)
(45.4494 9.60902e-07 -0)
(45.4494 1.90234e-06 -0)
(45.4494 2.30045e-06 -0)
(45.4494 1.85802e-06 -0)
(45.4494 6.99618e-07 -0)
(45.4494 -6.41762e-07 -0)
(45.4494 -1.51683e-06 -0)
(45.4494 -1.51703e-06 -0)
(45.4493 -6.8928e-07 -0)
(45.4498 -1.87034e-05 -0)
(45.4498 -1.81737e-05 -0)
(45.4499 -1.73921e-05 -0)
(45.4499 -1.65858e-05 -0)
(45.4499 -1.5757e-05 -0)
(45.4499 -1.45597e-05 -0)
(45.4498 -1.26268e-05 -0)
(45.45 -1.11551e-05 -0)
(45.4501 -1.00758e-05 -0)
(45.4499 -7.05652e-06 -0)
(45.4498 -4.6067e-06 -0)
(45.4499 -3.62487e-06 -0)
(45.4501 1.03677e-06 -0)
(45.4502 6.89006e-06 -0)
(45.4501 9.36588e-06 -0)
(45.4499 5.11847e-06 -0)
(45.4499 -5.55875e-06 -0)
(45.4499 -2.00568e-05 -0)
(45.45 -3.3803e-05 -0)
(45.4502 -4.23701e-05 -0)
(45.4503 -4.4825e-05 -0)
(45.4503 -4.32462e-05 -0)
(45.4503 -3.9579e-05 -0)
(45.4502 -3.43113e-05 -0)
(45.45 -2.75273e-05 -0)
(45.4499 -1.99967e-05 -0)
(45.4498 -1.30321e-05 -0)
(45.4496 -7.67796e-06 -0)
(45.4496 -4.1771e-06 -0)
(45.4495 -2.05009e-06 -0)
(45.4494 -5.7371e-07 -0)
(45.4494 7.13865e-07 -0)
(45.4494 1.7863e-06 -0)
(45.4494 2.29583e-06 -0)
(45.4494 1.96664e-06 -0)
(45.4494 9.0548e-07 -0)
(45.4494 -3.81082e-07 -0)
(45.4494 -1.25675e-06 -0)
(45.4494 -1.31637e-06 -0)
(45.4493 -6.06111e-07 -0)
(45.4498 -2.48324e-05 -0)
(45.4498 -2.44141e-05 -0)
(45.4499 -2.3718e-05 -0)
(45.4499 -2.29101e-05 -0)
(45.4499 -2.25558e-05 -0)
(45.4499 -2.25678e-05 -0)
(45.4498 -2.16686e-05 -0)
(45.45 -2.02166e-05 -0)
(45.4501 -1.94122e-05 -0)
(45.4499 -1.78617e-05 -0)
(45.4498 -1.79203e-05 -0)
(45.4499 -1.84009e-05 -0)
(45.4501 -1.2824e-05 -0)
(45.4502 -3.72193e-06 -0)
(45.4501 4.90759e-06 -0)
(45.4499 9.73271e-06 -0)
(45.4498 6.36053e-06 -0)
(45.4499 -6.53381e-06 -0)
(45.45 -2.35799e-05 -0)
(45.4502 -3.71071e-05 -0)
(45.4503 -4.36668e-05 -0)
(45.4503 -4.46954e-05 -0)
(45.4503 -4.26624e-05 -0)
(45.4502 -3.8542e-05 -0)
(45.4501 -3.24081e-05 -0)
(45.4499 -2.48457e-05 -0)
(45.4498 -1.72028e-05 -0)
(45.4496 -1.08257e-05 -0)
(45.4496 -6.31591e-06 -0)
(45.4495 -3.41329e-06 -0)
(45.4494 -1.43217e-06 -0)
(45.4494 1.62608e-07 -0)
(45.4494 1.44091e-06 -0)
(45.4494 2.12014e-06 -0)
(45.4494 1.94953e-06 -0)
(45.4494 1.03144e-06 -0)
(45.4494 -1.52234e-07 -0)
(45.4494 -9.93676e-07 -0)
(45.4494 -1.10244e-06 -0)
(45.4493 -5.16369e-07 -0)
(45.4498 -2.90568e-05 -0)
(45.4498 -2.82628e-05 -0)
(45.4499 -2.74464e-05 -0)
(45.4499 -2.61562e-05 -0)
(45.4499 -2.51696e-05 -0)
(45.4499 -2.53833e-05 -0)
(45.4498 -2.62593e-05 -0)
(45.45 -2.61713e-05 -0)
(45.4501 -2.424e-05 -0)
(45.4499 -2.10294e-05 -0)
(45.4498 -2.48463e-05 -0)
(45.4499 -3.21729e-05 -0)
(45.4501 -3.06157e-05 -0)
(45.4502 -2.0866e-05 -0)
(45.4501 -8.53992e-06 -0)
(45.4499 4.10761e-06 -0)
(45.4498 1.07355e-05 -0)
(45.4499 5.00721e-06 -0)
(45.45 -1.07191e-05 -0)
(45.4502 -2.78107e-05 -0)
(45.4503 -3.96514e-05 -0)
(45.4503 -4.50288e-05 -0)
(45.4503 -4.55983e-05 -0)
(45.4502 -4.27763e-05 -0)
(45.4501 -3.71864e-05 -0)
(45.4499 -2.96015e-05 -0)
(45.4498 -2.14158e-05 -0)
(45.4497 -1.41537e-05 -0)
(45.4496 -8.70786e-06 -0)
(45.4495 -5.04414e-06 -0)
(45.4494 -2.54182e-06 -0)
(45.4494 -6.11404e-07 -0)
(45.4494 9.0445e-07 -0)
(45.4494 1.78748e-06 -0)
(45.4494 1.81267e-06 -0)
(45.4494 1.07661e-06 -0)
(45.4494 3.42659e-08 -0)
(45.4494 -7.42872e-07 -0)
(45.4494 -8.86757e-07 -0)
(45.4493 -4.24318e-07 -0)
(45.4498 -2.9968e-05 -0)
(45.4498 -2.82346e-05 -0)
(45.4499 -2.7069e-05 -0)
(45.4499 -2.54695e-05 -0)
(45.4499 -2.29455e-05 -0)
(45.4499 -2.05538e-05 -0)
(45.4498 -2.1364e-05 -0)
(45.45 -2.54016e-05 -0)
(45.4501 -2.42472e-05 -0)
(45.4499 -1.31645e-05 -0)
(45.4498 -1.39768e-05 -0)
(45.4499 -2.93721e-05 -0)
(45.4501 -3.98215e-05 -0)
(45.4502 -3.6521e-05 -0)
(45.4501 -2.43615e-05 -0)
(45.4499 -7.44292e-06 -0)
(45.4499 6.98229e-06 -0)
(45.4499 1.01265e-05 -0)
(45.45 4.25988e-07 -0)
(45.4501 -1.58348e-05 -0)
(45.4503 -3.11631e-05 -0)
(45.4503 -4.15653e-05 -0)
(45.4503 -4.63623e-05 -0)
(45.4502 -4.61547e-05 -0)
(45.4501 -4.17859e-05 -0)
(45.4499 -3.44591e-05 -0)
(45.4498 -2.58827e-05 -0)
(45.4497 -1.78429e-05 -0)
(45.4496 -1.15031e-05 -0)
(45.4495 -7.04716e-06 -0)
(45.4494 -3.95124e-06 -0)
(45.4494 -1.61112e-06 -0)
(45.4494 1.97851e-07 -0)
(45.4494 1.32365e-06 -0)
(45.4494 1.57707e-06 -0)
(45.4494 1.05333e-06 -0)
(45.4494 1.78133e-07 -0)
(45.4494 -5.15072e-07 -0)
(45.4494 -6.81535e-07 -0)
(45.4493 -3.35323e-07 -0)
(45.4498 -2.83051e-05 -0)
(45.4498 -2.53738e-05 -0)
(45.4499 -2.32371e-05 -0)
(45.4499 -2.21162e-05 -0)
(45.4499 -1.97141e-05 -0)
(45.4499 -1.31359e-05 -0)
(45.4498 -7.66358e-06 -0)
(45.45 -1.61625e-05 -0)
(45.4501 -2.47936e-05 -0)
(45.45 -6.06178e-06 -0)
(45.4498 8.19687e-06 -0)
(45.4499 -4.06279e-06 -0)
(45.4501 -2.78722e-05 -0)
(45.4502 -4.12244e-05 -0)
(45.4501 -3.72533e-05 -0)
(45.45 -2.05362e-05 -0)
(45.4499 -1.92182e-06 -0)
(45.4499 7.91267e-06 -0)
(45.45 5.1854e-06 -0)
(45.4501 -6.68365e-06 -0)
(45.4503 -2.16791e-05 -0)
(45.4503 -3.49556e-05 -0)
(45.4503 -4.37747e-05 -0)
(45.4502 -4.70448e-05 -0)
(45.4501 -4.49088e-05 -0)
(45.4499 -3.85975e-05 -0)
(45.4498 -3.01326e-05 -0)
(45.4497 -2.16499e-05 -0)
(45.4496 -1.46138e-05 -0)
(45.4495 -9.43126e-06 -0)
(45.4494 -5.70799e-06 -0)
(45.4494 -2.88081e-06 -0)
(45.4494 -7.03189e-07 -0)
(45.4494 7.21379e-07 -0)
(45.4494 1.24263e-06 -0)
(45.4494 9.61435e-07 -0)
(45.4494 2.75939e-07 -0)
(45.4494 -3.17844e-07 -0)
(45.4494 -4.95231e-07 -0)
(45.4493 -2.5322e-07 -0)
(45.4498 -2.69156e-05 -0)
(45.4498 -2.37518e-05 -0)
(45.4499 -1.98633e-05 -0)
(45.4499 -1.88447e-05 -0)
(45.4499 -2.10877e-05 -0)
(45.45 -1.61829e-05 -0)
(45.4498 2.44283e-06 -0)
(45.4499 -1.44405e-06 -0)
(45.4501 -2.96935e-05 -0)
(45.45 -1.83474e-05 -0)
(45.4498 1.31191e-05 -0)
(45.4499 2.27975e-05 -0)
(45.4501 1.96195e-06 -0)
(45.4502 -2.69437e-05 -0)
(45.4501 -3.90858e-05 -0)
(45.45 -2.96441e-05 -0)
(45.4499 -1.10333e-05 -0)
(45.4499 2.52971e-06 -0)
(45.45 4.8882e-06 -0)
(45.4501 -2.51783e-06 -0)
(45.4502 -1.52632e-05 -0)
(45.4503 -2.89569e-05 -0)
(45.4503 -4.00826e-05 -0)
(45.4502 -4.62433e-05 -0)
(45.4501 -4.65305e-05 -0)
(45.4499 -4.17115e-05 -0)
(45.4498 -3.38357e-05 -0)
(45.4497 -2.52954e-05 -0)
(45.4496 -1.78322e-05 -0)
(45.4495 -1.2067e-05 -0)
(45.4495 -7.75048e-06 -0)
(45.4494 -4.40197e-06 -0)
(45.4494 -1.79844e-06 -0)
(45.4494 -2.30749e-08 -0)
(45.4494 8.04459e-07 -0)