/*--------------------------------*- C++ -*----------------------------------*\
| =========                 |                                                 |
| \\      /  F ield         | OpenFOAM: The Open Source CFD Toolbox           |
|  \\    /   O peration     | Version:  2406                                  |
|   \\  /    A nd           | Website:  www.openfoam.com                      |
|    \\/     M anipulation  |                                                 |
\*---------------------------------------------------------------------------*/
FoamFile
{
    version     2.0;
    format      ascii;
    arch        "LSB;label=32;scalar=64";
    class       volScalarField;
    location    "6e-05/encapsulator";
    object      voltExt;
}
// * * * * * * * * * * * * * * * * * * * * * * * * * * * * * * * * * * * * * //

dimensions      [1 2 -3 0 0 -1 0];

internalField   nonuniform List<scalar> 
26298
(
565.1056687
556.0665147
545.7459825
537.0266897
530.5039175
525.911861
522.7848395
520.6961132
519.317005
518.4129139
517.7698797
517.1965339
516.619624
516.0391572
577.8810123
571.1282362
562.1271101
553.8524102
547.372842
542.6925462
539.4572539
537.2765681
535.8286847
534.8761806
534.1972088
533.5907675
532.9795094
532.3634421
594.6019675
593.7243883
588.4955185
581.8037854
575.8019584
571.1667635
567.8439572
565.5567222
564.0187975
562.9991507
562.2687599
561.6139104
560.9513986
560.2812348
608.7559766
619.0099669
621.6253605
618.6038149
613.9825741
609.7463812
606.4614626
604.1043792
602.48142
601.3900112
600.6013565
599.8895119
599.1646431
598.42677
616.0632813
643.5334658
659.6139532
663.417764
661.6067441
658.3481821
655.3144045
652.95547
651.2618347
650.0955114
649.24069
648.4608544
647.6586506
646.834122
614.5336557
664.6007011
700.7676091
715.682474
718.7496832
717.3273421
714.8629195
712.6023559
710.8576579
709.61003
708.6758078
707.8101123
706.9065748
705.9652814
604.2605459
680.1347451
742.9864932
774.3503097
785.1552516
786.8252493
785.4160909
783.4164305
781.6595452
780.3275407
779.2987779
778.3246494
777.288047
776.1891138
586.8353881
688.8673682
783.6911672
837.5080084
859.8003035
866.3648121
866.7653244
865.3100309
863.6322157
862.235027
861.106788
860.00674
858.8064198
857.5060005
564.5783507
690.5461474
820.2339726
902.3961103
940.7157479
954.6300598
957.9719394
957.5402006
956.132016
954.7400132
953.5370723
952.3152535
950.9373718
949.4034881
539.8591524
685.8944056
850.5159691
965.7962061
1025.068552
1049.413201
1057.272123
1058.605076
1057.80471
1056.571824
1055.371673
1054.074203
1052.541866
1050.774221
514.6680743
676.3039056
873.4455855
1024.642906
1109.502887
1147.754533
1162.120365
1166.245986
1166.570237
1165.758968
1164.711325
1163.444678
1161.837253
1159.887287
490.4458983
663.4225095
889.0253421
1076.609978
1190.659548
1246.274534
1269.393908
1277.581677
1279.719636
1279.705903
1279.039911
1277.979798
1276.444111
1274.428339
468.0946896
648.8080187
898.1061593
1120.439041
1265.709487
1341.632218
1375.744546
1389.384647
1394.144807
1395.394826
1395.407829
1394.792795
1393.54023
1391.640751
448.0780448
633.7269757
901.9975896
1155.932092
1332.722374
1430.976593
1478.014456
1498.446192
1506.663824
1509.683928
1510.711012
1510.819121
1510.106105
1508.554983
430.5443991
619.0899102
902.111342
1183.69733
1390.776141
1512.259396
1573.603678
1601.942433
1614.372531
1619.645004
1622.016902
1623.13108
1623.227399
1622.27825
415.438009
605.4755086
899.7247
1204.807142
1439.833833
1584.341389
1660.693511
1697.703572
1714.928783
1722.851115
1726.85181
1729.223101
1730.376395
1730.27056
402.5848194
593.1957874
895.8687565
1220.495204
1480.491247
1646.912272
1738.296069
1784.335995
1806.712125
1817.555632
1823.391095
1827.209922
1829.6163
1830.553228
391.7527231
582.3696478
891.3068833
1231.949526
1513.703911
1700.298118
1806.160818
1861.199206
1888.843872
1902.73794
1910.521521
1915.902487
1919.689288
1921.807531
382.6907337
572.9880136
886.5632539
1240.20249
1540.562628
1745.237278
1864.601831
1928.28283
1961.099891
1978.039712
1987.79388
1994.774725
1999.996904
2003.36799
375.1526223
564.9646364
881.9710513
1246.092901
1562.141711
1782.681108
1914.306661
1986.038675
2023.763882
2043.633874
2055.303569
2063.854682
2070.502051
2075.135202
370.3061352
559.6916158
878.6726102
1249.33667
1575.55114
1806.719606
1946.804953
2024.214961
2065.455808
2087.448534
2100.517403
2110.224171
2117.929982
2123.510683
367.4766126
556.5858214
876.6632684
1251.095753
1583.258445
1820.733346
1965.90084
2046.753748
2090.140309
2113.434703
2127.364468
2137.784413
2146.145679
2152.315744
364.6274461
553.4310576
874.555114
1252.728337
1590.890405
1834.816007
1985.24814
2069.701665
2115.347134
2140.018294
2154.861688
2166.040768
2175.102228
2181.904333
361.7586675
550.2270162
872.3463368
1254.229379
1598.438392
1848.958861
2004.843171
2093.062046
2141.085642
2167.21303
2183.026189
2195.013232
2204.822546
2212.302439
358.8703116
546.9733967
870.0351251
1255.59374
1605.893392
1863.15243
2024.681431
2116.837614
2167.364921
2195.032707
2211.875266
2224.722222
2235.330147
2243.536979
355.9624164
543.6699069
867.6196672
1256.81619
1613.246005
1877.386435
2044.75751
2141.030441
2194.193833
2223.491039
2241.426236
2255.188707
2266.649378
2275.635553
353.0350229
540.3162631
865.0981529
1257.891406
1620.486436
1891.649759
2065.065015
2165.641857
2221.580794
2252.601748
2271.696688
2286.433982
2298.805172
2308.626574
350.0881755
536.9121909
862.4687747
1258.813982
1627.604492
1905.930396
2085.596475
2190.672357
2249.533756
2282.378517
2302.70439
2318.479552
2331.823099
2342.539539
347.1219216
533.4574247
859.72973
1259.578424
1634.589575
1920.215406
2106.343252
2216.121506
2278.06012
2312.834773
2334.467258
2351.347323
2365.729364
2377.404923
344.1363121
529.9517088
856.8792218
1260.179162
1641.430679
1934.490872
2127.295426
2241.987825
2307.16666
2343.98362
2367.003292
2385.059653
2400.550798
2413.254089
341.1314008
526.3947975
853.9154611
1260.610549
1648.11639
1948.741848
2148.441691
2268.268649
2336.859433
2375.837823
2400.330484
2419.639253
2436.314858
2450.119323
338.1072453
522.786455
850.8366681
1260.866867
1654.634886
1962.952318
2169.769228
2294.959986
2367.143655
2408.409755
2434.466728
2455.109101
2473.049645
2488.033905
335.0639061
519.1264563
847.6410743
1260.942332
1660.973934
1977.10514
2191.263584
2322.056355
2398.023555
2441.711297
2469.429775
2491.492402
2510.783915
2527.032155
332.0014473
515.4145875
844.326924
1260.831099
1667.120896
1991.182007
2212.908525
2349.550614
2429.502207
2475.753707
2505.237178
2528.812569
2549.547069
2567.149463
328.9199365
511.6506456
840.8924763
1260.527271
1673.06273
2005.163397
2234.685893
2377.433763
2461.58136
2510.547493
2541.90622
2567.093198
2589.369151
2608.42231
325.8194444
507.8344397
837.3360068
1260.024898
1678.786001
2019.028528
2256.575445
2405.694723
2494.261247
2546.10227
2579.453823
2606.358014
2630.280835
2650.888308
322.7000456
503.9657903
833.6558098
1259.317994
1684.276884
2032.755318
2278.554686
2434.320097
2527.540363
2582.426589
2617.89642
2646.630811
2672.313432
2694.586247
319.5618178
500.0445305
829.8501998
1258.400533
1689.521179
2046.320345
2300.598689
2463.293887
2561.415213
2619.52775
2657.249829
2687.935385
2715.498898
2739.556176
316.4048423
496.0705061
825.917514
1257.266465
1694.504321
2059.698808
2322.679905
2492.597194
2595.880018
2657.411573
2697.529104
2730.295465
2759.869861
2785.839502
313.2292042
492.0435757
821.8561139
1255.909721
1699.211397
2072.864501
2344.767966
2522.207869
2630.926381
2696.082144
2738.748374
2773.734649
2805.459654
2833.47913
310.0349918
487.9636113
817.6643877
1254.32422
1703.627167
2085.789782
2366.829473
2552.100127
2666.542893
2735.541514
2780.920663
2818.276335
2852.302352
2882.519618
306.8222972
483.8304984
813.340752
1252.50388
1707.736082
2098.445561
2388.827782
2582.244117
2702.714692
2775.78935
2824.057664
2863.943639
2900.432823
2933.007381
303.591216
479.6441366
808.8836542
1250.442627
1711.522311
2110.801286
2410.722781
2612.605441
2739.422929
2816.822525
2868.169467
2910.759294
2949.886793
2984.990913
300.3418476
475.4044399
804.2915744
1248.134403
1714.969767
2122.824945
2432.470657
2643.144608
2776.644158
2858.63462
2913.264218
2958.745516
3000.700941
3038.521075
297.0742948
471.1113366
799.563028
1245.573178
1718.062144
2134.483078
2454.023672
2673.816437
2814.349606
2901.215326
2959.34771
3007.923845
3052.913055
3093.651472
293.7886643
466.7647704
794.6965671
1242.75296
1720.782946
2145.7408
2475.329936
2704.569384
2852.50431
2944.549718
3006.422897
3058.314939
3106.562215
3150.43896
290.4850662
462.3646999
789.6907833
1239.667803
1723.115527
2156.561847
2496.333187
2735.344795
2891.066101
2988.617365
3054.489289
3109.938326
3161.689006
3208.944318
287.1636146
457.9110995
784.5443097
1236.311823
1725.043139
2166.908631
2516.972588
2766.076087
2929.984398
3033.391222
3103.542193
3162.812082
3218.335699
3269.233093
283.8244272
453.4039596
779.255823
1232.679205
1726.548973
2176.742316
2537.182553
2796.687847
2969.198787
3078.836247
3153.571693
3216.952408
3276.546472
3331.376625
280.4676252
448.8432866
773.8240459
1228.764215
1727.616208
2186.022923
2556.8926
2827.094851
3008.637324
3124.907676
3204.561301
3272.373036
3336.367726
3395.453268
277.0933339
444.2291035
768.2477488
1224.561215
1728.228071
2194.709448
2576.027257
2857.20102
3048.214521
3171.548848
3256.486197
3329.084316
3397.848536
3461.549931
273.7016822
439.5614502
762.5257525
1220.06467
1728.367891
2202.760018
2594.506032
2886.89832
3087.828956
3218.688473
3309.310964
3387.091857
3461.041067
3529.764212
270.2928026
434.8403837
756.65693
1215.269164
1728.019157
2210.132063
2612.243459
2916.065645
3127.360456
3266.237133
3362.986586
3446.394625
3526.0007
3600.207284
266.8668315
430.0659783
750.6402087
1210.169409
1727.165588
2216.782533
2629.149248
2944.567724
3166.666817
3314.082807
3417.44627
3506.982423
3592.785882
3673.007426
263.4239091
425.238326
744.4745726
1204.760257
1725.791196
2222.668131
2645.128564
2972.25411
3205.580011
3362.085223
3472.599564
3568.832105
3661.457962
3748.314218
259.9641793
420.3575368
738.1590641
1199.036715
1723.880354
2227.745593
2660.082444
2998.958351
3243.901893
3410.068777
3528.324414
3631.90133
3732.080602
3826.304472
256.4877897
415.4237386
731.6927858
1192.993952
1721.41787
2231.971994
2673.908404
3024.497442
3281.399482
3457.813537
3584.456786
3696.119039
3804.716892
3907.190381
515.4816877
514.9478375
514.4110668
513.8713819
513.3287894
512.7832961
512.2349089
511.683635
511.1294816
510.5724563
510.0125667
509.4498207
508.8842264
508.315792
507.7445258
507.1704365
506.5935329
506.0138239
505.4313186
504.8460264
504.2579566
503.6671191
531.7707952
531.2024089
530.6300689
530.0537828
529.4735582
528.8894036
528.3013276
527.7093392
527.113448
526.5136637
525.9099967
525.3024576
524.6910575
524.0758078
523.4567203
522.8338073
522.2070814
521.5765555
520.942243
520.3041578
519.6623138
519.0167256
559.6342399
559.0117504
558.382968
557.7479047
557.1065734
556.4589882
555.805164
555.145117
554.478864
553.8064231
553.1278133
552.4430545
551.7521675
551.0551744
550.3520978
549.6429616
548.9277904
548.20661
547.4794468
546.7463283
546.0072828
545.2623397
597.710046
597.0167454
596.3127616
595.59812
594.8728487
594.1369781
593.3905413
592.6335735
591.8661126
591.0881987
590.2998745
589.5011849
588.6921771
587.8729008
587.0434077
586.2037521
585.3539903
584.4941809
583.6243844
582.7446639
581.8550843
580.9557125
646.0258118
645.2376337
644.4311486
643.6064143
642.7634947
641.9024593
641.0233836
640.1263488
639.211442
638.2787557
637.3283882
636.3604433
635.3750303
634.3722638
633.3522638
632.3151555
631.2610692
630.1901404
629.1025094
627.9983215
626.8777266
625.7408794
705.0308366
704.1098746
703.1580077
702.1753589
701.1620653
700.1182774
699.044159
697.9398876
696.8056537
695.6416607
694.4481252
693.2252763
691.9733557
690.6926173
689.3833271
688.0457629
686.6802141
685.2869814
683.8663765
682.4187219
680.9443503
679.4436049
775.0808145
773.9741191
772.8164585
771.6080706
770.349224
769.040218
767.6813819
766.2730752
764.8156868
763.309635
761.7553672
760.1533587
758.504113
756.8081609
755.0660598
753.278393
751.4457693
749.5688221
747.6482085
745.6846087
743.678725
741.631281
856.1694007
854.814237
853.3772054
851.858716
850.2592455
848.5793365
846.8195975
844.9807021
843.0633884
841.0684584
838.9967764
836.8492688
834.6269219
832.3307809
829.9619485
827.5215827
825.0108954
822.4311505
819.7836619
817.069791
814.2909452
811.4485751
947.7906626
946.1262865
944.334039
942.4145375
940.3685362
938.1969273
935.9007398
933.481139
930.9394253
928.2770324
925.4955254
922.5965974
919.5820676
916.4538771
913.2140858
909.8648684
906.40851
902.8474015
899.1840353
895.4209998
891.5609743
887.6067237
1048.862249
1046.847051
1044.63808
1042.236103
1039.642159
1036.857556
1033.883876
1030.722971
1027.376965
1023.848245
1020.139461
1016.253519
1012.193576
1007.963033
1003.565526
999.0049186
994.2852946
989.4109452
984.3863597
979.2162141
973.9053585
968.4588052
1157.69794
1155.328526
1152.674956
1149.737886
1146.518472
1143.01838
1139.239785
1135.185373
1130.858336
1126.262367
1121.401655
1116.280877
1110.905186
1105.280199
1099.411985
1093.307046
1086.972299
1080.415054
1073.642996
1066.664154
1059.486879
1052.119816
1272.042673
1269.36923
1266.293498
1262.815418
1258.935801
1254.656347
1249.979649
1244.909195
1239.44937
1233.605454
1227.383616
1220.790907
1213.835239
1206.525371
1198.870881
1190.882134
1182.570247
1173.947046
1165.025028
1155.817306
1146.33756
1136.59998
1389.20274
1386.335107
1382.91855
1378.951228
1374.432717
1369.364026
1363.747613
1357.587409
1350.888847
1343.65887
1335.905933
1327.639992
1318.872485
1309.616306
1299.885756
1289.696491
1279.065457
1268.010825
1256.551909
1244.709078
1232.503651
1219.957805
1506.260387
1503.36076
1499.739615
1495.391781
1490.314207
1484.505986
1477.968399
1470.70502
1462.721809
1454.027139
1444.631776
1434.548884
1423.794021
1412.385113
1400.342371
1387.688192
1374.447086
1360.645577
1346.312065
1331.476656
1316.170996
1300.428108
1620.350884
1617.614337
1613.963546
1609.388054
1603.880353
1597.43592
1590.053375
1581.734734
1572.485588
1562.315095
1551.23593
1539.26435
1526.420286
1512.727312
1498.212478
1482.906177
1466.842079
1450.057041
1432.590849
1414.485911
1395.786996
1376.541027
1728.931988
1726.559648
1723.068316
1718.440122
1712.661029
1705.720989
1697.614277
1688.339917
1677.901867
1666.308926
1653.574764
1639.718198
1624.763385
1608.739717
1591.681562
1573.628133
1554.623525
1534.716602
1513.96056
1492.412393
1470.132591
1447.184914
1829.994682
1828.167435
1825.013275
1820.504958
1814.620004
1807.34107
1798.656464
1788.560627
1777.054276
1764.144349
1749.844331
1734.174835
1717.16373
1698.845803
1679.262589
1658.46247
1636.500749
1613.439367
1589.346258
1564.294717
1538.363095
1511.634518
1922.170409
1921.02932
1918.358341
1914.119458
1908.280293
1900.814761
1891.703765
1880.935502
1868.505816
1854.418505
1838.685798
1821.329073
1802.378896
1781.874516
1759.864008
1736.4048
1711.563551
1685.415476
1658.043714
1629.538906
1599.998817
1569.527703
2004.735671
2004.37243
2002.287753
1998.432091
1992.762358
1985.242525
1975.844969
1964.550494
1951.348857
1936.239883
1919.233595
1900.350641
1879.622896
1857.093156
1832.81528
1806.854957
1779.289492
1750.206872
1719.705326
1687.893189
1654.888256
1620.816594
2077.534968
2077.991774
2076.551537
2073.152594
2067.741205
2060.270711
2050.70419
2039.014915
2025.185898
2009.211968
1991.099996
1970.868637
1948.549864
1924.189236
1897.845441
1869.590997
1839.512555
1807.710105
1774.296467
1739.397098
1703.149256
1665.700544
2126.696329
2127.788985
2126.862768
2123.846046
2118.677231
2111.301927
2101.67547
2089.765409
2075.549513
2059.017797
2040.17413
2019.035406
1995.632987
1970.013647
1942.238896
1912.385482
1880.546263
1846.829719
1811.359137
1774.272191
1735.720236
1695.866955
2155.993069
2157.485944
2156.886506
2154.11722
2149.110935
2141.80887
2132.161637
2120.132547
2105.696226
2088.839758
2069.56471
2047.886901
2023.837363
1997.463161
1968.827143
1938.008636
1905.104297
1870.227653
1833.508226
1795.091072
1755.136214
1713.817411
2186.111803
2188.039124
2187.797484
2185.303602
2180.484083
2173.275031
2163.622382
2151.48471
2136.83282
2119.650882
2099.938096
2077.708685
2052.992915
2025.837962
1996.307985
1964.484949
1930.469351
1894.379724
1856.351916
1816.538859
1775.11004
1732.250041
2217.081231
2219.479911
2219.629723
2217.44131
2212.834953
2205.740837
2196.099699
2183.865253
2169.004137
2151.497267
2131.341134
2108.547828
2083.146432
2055.184221
2024.726739
1991.858389
1956.683206
1919.324758
1879.925713
1838.64751
1795.669576
1751.187754
2248.931279
2251.840753
2252.418432
2250.568165
2246.203581
2239.248422
2229.637684
2217.320084
2202.257795
2184.427785
2163.823236
2140.45387
2114.347504
2085.5513
2054.131816
2020.175586
1983.79015
1945.104375
1904.268105
1861.451597
1816.844585
1770.654827
2281.692801
2285.155445
2286.200312
2284.723631
2280.631821
2273.841966
2264.28294
2251.897897
2236.643953
2218.493594
2197.436356
2173.479388
2146.648947
2116.991614
2084.574538
2049.486221
2011.837791
1971.763544
1929.420602
1884.988244
1838.667033
1790.677557
2315.397783
2319.45927
2321.013577
2319.948791
2316.163631
2309.568123
2300.084496
2287.649648
2272.215095
2253.748507
2232.235484
2207.680204
2180.10683
2149.560845
2116.109668
2079.843662
2040.877487
1999.350782
1955.427934
1909.297536
1861.171662
1811.284726
2350.079377
2354.788811
2356.898072
2356.286671
2352.845133
2346.475772
2337.093568
2324.628605
2309.026391
2290.249434
2268.278951
2243.115551
2214.780716
2183.318373
2148.795912
2111.305318
2070.964544
2027.91836
1982.338424
1934.423007
1884.396418
1832.507841
2385.771915
2391.182042
2393.895384
2393.782281
2390.724484
2384.615901
2375.363714
2362.890761
2347.136124
2328.056653
2305.62856
2279.848244
2250.733949
2218.327601
2182.696147
2143.932785
2102.158375
2057.522583
2010.204363
1960.412017
1908.382726
1854.38133
2422.510965
2428.678462
2432.048844
2432.482542
2429.851906
2424.041823
2414.951201
2402.495179
2386.605879
2367.233852
2344.349639
2317.944811
2288.033833
2254.656098
2217.87754
2177.791988
2134.522757
2088.224147
2039.082395
1987.31608
1933.175782
1876.942847
2460.333372
2467.319139
2471.403549
2472.436362
2470.279897
2464.809483
2455.915244
2443.504077
2427.500501
2407.848095
2384.511084
2357.475616
2326.751781
2292.375765
2254.411751
2212.953503
2168.126253
2120.088609
2069.033967
2015.191289
1958.824971
1900.233708
2499.277304
2507.146749
2512.006459
2513.694811
2512.063446
2506.9776
2498.318016
2485.982746
2469.888034
2449.969853
2426.185496
2398.515065
2366.963556
2331.563125
2292.375327
2249.493041
2203.042771
2153.18697
2100.125904
2044.098876
1985.384423
1924.299439
2539.382297
2548.205647
2553.906529
2556.311268
2555.260121
2550.607659
2542.224593
2529.999522
2513.839799
2493.673196
2469.44945
2441.141903
2408.749604
2372.29972
2331.850173
2287.492003
2239.352165
2187.59629
2132.431047
2074.105877
2012.913694
1949.190412
2580.689317
2590.541962
2597.154823
2600.341494
2599.930088
2595.763903
2587.702983
2575.625916
2559.430617
2539.036072
2514.383783
2485.439507
2452.195368
2414.67247
2372.923969
2327.037941
2277.140737
2223.400262
2166.02889
2105.285831
2041.478493
1974.962552
2623.240834
2634.203684
2641.804594
2645.84369
2646.136164
2642.513426
2634.824292
2622.936845
2606.739058
2586.140532
2561.073779
2531.496053
2497.391478
2458.773909
2415.690458
2368.2249
2316.501662
2260.689715
2201.006193
2137.719495
2071.151456
2001.678133
2667.080907
2679.24076
2687.911381
2692.878597
2693.94395
2690.92635
2683.662932
2672.010818
2655.84758
2635.072805
2609.609214
2579.40458
2544.43386
2504.702366
2460.249705
2411.153767
2357.535419
2299.563175
2237.457667
2171.495626
2102.01301
2029.406669
2712.255278
2725.705213
2735.53315
2741.509664
2743.422012
2741.076015
2734.296767
2722.930028
2706.842541
2685.923274
2660.084343
2629.263028
2593.42388
2552.562213
2506.70845
2455.932735
2400.350399
2340.127599
2275.486831
2206.711955
2134.15242
2058.226008
2758.811497
2773.651304
2784.730465
2791.803243
2794.642065
2793.03912
2786.807186
2775.780348
2759.814157
2738.786428
2712.597902
2681.174339
2644.468543
2602.464199
2555.180595
2502.677941
2445.063689
2382.499315
2315.207097
2243.476377
2167.669058
2088.223634
2806.799066
2823.135734
2835.566702
2843.828809
2847.679136
2846.895822
2841.279129
2830.651299
2814.856455
2793.76085
2767.253155
2735.246572
2697.680718
2654.525783
2605.787674
2551.514112
2491.801905
2426.805041
2356.74296
2281.908296
2202.673863
2119.498197
2856.269633
2874.217889
2888.10829
2897.659169
2902.611725
2902.729817
2897.801104
2887.636034
2872.067251
2850.9492
2824.157908
2791.59296
2753.179241
2708.871346
2658.659211
2602.575099
2540.70193
2473.182838
2400.231172
2322.140012
2239.290906
2152.16121
2907.277211
2926.96012
2942.42499
2953.370702
2959.521984
2960.628434
2956.465227
2946.831327
2931.548113
2910.458174
2883.42445
2850.331862
2811.088917
2765.632271
2713.932943
2656.004296
2591.911561
2521.783008
2445.821906
2364.318149
2277.65908
2186.338946
2959.878471
2981.428069
2998.590247
3011.043642
3018.495951
3020.682786
3017.367293
3008.337576
2993.404301
2972.398389
2945.169425
2911.586648
2871.540458
2824.947001
2771.755054
2711.955098
2645.590229
2572.769095
2493.680052
2408.605267
2317.934022
2222.174656
3014.133106
3037.691068
3056.681638
3070.762463
3079.623862
3082.987974
3080.606851
3072.25876
3057.744613
3036.884167
3009.513578
2975.485479
2934.67036
2886.96108
2832.280434
2770.591443
2701.909862
2626.319087
2543.98677
2455.181765
2360.290374
2259.831173
3070.104324
3095.822667
3116.781434
3132.616392
3143.000534
3147.643331
3146.287259
3138.702305
3124.681082
3104.033105
3076.581289
3042.160875
3000.620597
2951.827037
2895.672838
2832.088304
2761.055761
2682.626708
2596.941193
2504.248007
2404.924327
2299.49388
3127.859458
3155.901348
3178.977296
3196.700048
3208.725808
3214.752652
3214.515654
3207.778813
3194.32849
3173.965442
3146.499867
3111.749042
3069.538065
3019.704036
2962.10481
2896.631977
2823.227333
2741.90264
2652.762165
2556.026547
2452.056346
2341.373947
3187.470706
3218.011436
3243.363109
3263.114188
3276.905046
3284.424409
3285.402878
3279.601702
3266.803791
3246.803314
3219.398744
3184.389079
3141.573911
3090.757414
3031.757517
2964.420288
2888.638756
2804.375732
2711.690016
2610.764491
2501.934086
2385.711849
3249.01603
3282.244224
3310.04003
3331.966579
3347.649744
3356.772006
3359.063416
3354.286836
3342.225507
3322.669992
3295.408626
3260.222144
3216.882815
3165.158178
3104.820559
3035.662812
2957.51971
2870.294312
2773.988508
2668.736057
2554.835582
2432.78121
3312.580303
3348.699353
3379.117881
3403.373089
3421.078296
3431.914089
3435.615278
3431.952038
3420.712954
3401.688887
3374.660375
3339.390315
3295.621939
3243.082199
3181.491539
3110.580946
3030.116045
2939.927533
2839.946895
2730.245323
2611.072631
2482.892887
3378.256907
3417.486542
3450.716942
3477.459106
3497.316898
3509.974879
3515.179764
3512.716353
3502.385094
3483.982129
3457.283388
3422.034881
3377.949288
3324.708802
3261.975089
3189.407543
3106.690172
3013.566607
2909.881983
2795.629056
2670.994281
2536.3991
3446.149843
3488.727877
3524.970178
3554.361361
3576.500654
3591.084538
3597.881114
3596.699127
3587.359144
3569.668855
3543.403671
3508.29431
3464.021682
3410.218949
3346.481493
3272.386231
3187.521277
3091.526025
2984.140364
2865.259773
2734.990494
2593.697579
3516.376366
3562.560897
3602.026025
3634.230214
3658.775018
3675.379707
3683.846203
3684.019036
3675.749094
3658.863349
3633.141765
3598.30206
3553.992582
3499.793236
3435.22512
3359.770579
3272.905524
3174.14498
3063.101028
2939.549304
2803.496178
2655.235696
3589.070219
3639.142623
3682.052068
3717.232431
3744.297465
3763.004014
3773.203987
3774.79267
3767.663668
3751.672568
3726.610006
3692.183722
3648.009253
3593.60926
3528.422248
3451.822762
3363.155934
3261.788753
3147.17829
3018.952834
2876.995584
2721.514377
3664.386003
3718.654621
3765.239795
3803.554524
3833.239162
3854.108202
3866.084377
3869.1324
3863.203501
3848.192818
3823.90887
3790.053208
3746.208948
3691.837992
3626.287939
3548.811361
3458.601662
3354.849924
3236.825016
3103.973636
2956.027275
2793.091723
3742.505384
3801.309686
3851.810586
3893.406979
3925.786998
3948.850204
3962.616965
3967.144185
3962.458274
3948.506434
3925.123276
3892.008752
3848.714742
3794.639653
3729.032302
3651.008584
3559.586913
3453.749712
3332.536734
3195.169316
3041.190613
2870.586989
3823.645481
3887.361399
3942.02374
3987.029668
4022.146192
4047.395298
4062.929414
4068.924983
4065.503568
4052.678213
4030.318632
3998.128553
3955.630808
3902.158802
3836.855788
3758.686473
3666.469108
3558.939279
3434.856794
3293.16026
3133.154829
2954.685747
3908.069829
3977.117023
4036.187074
4084.697891
4122.54199
4149.914691
4167.144039
4174.558227
4172.395881
4160.75023
4139.535422
4108.464988
4067.036157
4014.517659
3949.942479
3872.111006
3779.615212
3670.900115
3544.382343
3398.640961
3232.672123
3046.147667
3996.10396
4070.954077
4134.66978
4186.72936
4227.221076
4256.583188
4275.373588
4284.108856
4283.167432
4272.736556
4252.783691
4223.038596
4182.977836
4131.808438
4068.451842
3991.534233
3899.396154
3790.143536
3661.771764
3512.396186
3340.598179
3145.820559
503.0801191
502.4970873
501.9114377
501.32318
500.732324
500.1388797
499.5428573
498.944267
498.3431193
518.3746226
517.7361833
517.0942074
516.4487099
515.799706
515.1472113
514.4912416
513.8318131
513.1689422
544.5198712
543.7801648
543.0349076
542.2841303
541.5278642
540.7661412
539.9989941
539.2264565
538.4485625
580.0567188
579.1585976
578.2513162
577.3349444
576.409554
575.4752185
574.5320128
573.5800137
572.6192993
624.6007495
623.4581989
622.300574
621.1280356
619.9407481
618.7388796
617.5226016
616.2920892
615.0475207
677.9338023
676.4164288
674.8748672
673.3094725
671.7206073
670.1086419
668.4739533
666.8169254
665.1379485
739.5662237
737.4860689
735.3683444
733.213797
731.0231888
728.7972964
726.5369095
724.2428305
721.9158737
808.5764438
805.6787245
802.72461
799.7155951
796.6532033
793.5389845
790.3745126
787.1613831
783.9012108
883.6060439
879.5657104
875.4435621
871.2424457
866.9652594
862.6149464
858.1944895
853.7069055
849.1552394
962.9436827
957.3707351
951.6830561
945.8858054
939.9842277
933.9836397
927.8894168
921.7069801
915.4417833
1044.655742
1037.111254
1029.411224
1021.564549
1013.58026
1005.467489
997.2354466
988.8933874
980.4505865
1126.730107
1116.752848
1106.571663
1096.201159
1085.656132
1074.951509
1064.102292
1053.123502
1042.030121
1207.237386
1194.378615
1181.261048
1167.907526
1154.341145
1140.585142
1126.662787
1112.597279
1098.411638
1284.461599
1268.322447
1251.864835
1235.122844
1218.13087
1200.923434
1183.534974
1165.999656
1148.351195
1357.016157
1337.281777
1317.166431
1296.718715
1275.987621
1255.022211
1233.871248
1212.582845
1191.204184
1423.897588
1400.361955
1376.38183
1352.023589
1327.354153
1302.440449
1277.348728
1252.143971
1226.889483
1484.500999
1457.078837
1429.149026
1400.798728
1372.115909
1343.18843
1314.102894
1284.94374
1255.792759
1538.582848
1507.30765
1475.463013
1443.159445
1410.508525
1377.621456
1344.607443
1311.572528
1278.618968
1586.200065
1551.210468
1515.591866
1479.479892
1443.011356
1406.322326
1369.546207
1332.812311
1296.244831
1627.635101
1589.153622
1549.986504
1510.295109
1470.24209
1429.989194
1389.695069
1349.513291
1309.590592
1655.342055
1614.368226
1572.667326
1530.420383
1487.810054
1445.018204
1402.223288
1359.59773
1317.305501
1671.792524
1629.297977
1586.050616
1542.243787
1498.072904
1453.732754
1409.414367
1365.301927
1321.570149
1688.646356
1644.549992
1599.67299
1554.222447
1508.407909
1462.438153
1416.517667
1370.843381
1325.601903
1705.920851
1660.1358
1613.540302
1566.356556
1518.80941
1471.122744
1423.515747
1376.199474
1329.373747
1723.634533
1676.068084
1627.659138
1578.646233
1529.270809
1479.773315
1430.389265
1381.345411
1332.856108
1741.807703
1692.360776
1642.036543
1591.091242
1539.78451
1488.375191
1437.116969
1386.253955
1336.01638
1760.462602
1709.028976
1656.679917
1603.691003
1550.341992
1496.912189
1443.675441
1390.894978
1338.818425
1779.623491
1726.089025
1671.597155
1616.444738
1560.933832
1505.366439
1450.038721
1395.235015
1341.222133
1799.316868
1743.558771
1686.796917
1629.351627
1571.549648
1513.718126
1456.177945
1399.236864
1343.183027
1819.571815
1761.457934
1702.288896
1642.410898
1582.178004
1521.945244
1462.061001
1402.859186
1344.651795
1840.420432
1779.808467
1718.084045
1655.621882
1592.806302
1530.02336
1467.652186
1406.056037
1345.573687
1861.89832
1798.634913
1734.194781
1668.984071
1603.420693
1537.925374
1472.911791
1408.776274
1345.887755
1884.045121
1817.964817
1750.635252
1682.497227
1614.006025
1545.621272
1477.795631
1410.962859
1345.525971
1906.905157
1837.829252
1767.421717
1696.161587
1624.545832
1553.077862
1482.254512
1412.552061
1344.412222
1930.528182
1858.263476
1784.573052
1709.978167
1635.022372
1560.258504
1486.233616
1413.472538
1342.461153
1954.970266
1879.307745
1802.111412
1723.949173
1645.416712
1567.122798
1489.671804
1413.644261
1339.576799
1980.29487
1901.008304
1820.063046
1738.078539
1655.708879
1573.626281
1492.500804
1412.977246
1335.650941
2006.574144
1923.418601
1838.459324
1752.372634
1665.878119
1579.720135
1494.644314
1411.370059
1330.561134
2033.890457
1946.600743
1857.337999
1766.841186
1675.903312
1585.350925
1496.016984
1408.708055
1324.168326
2062.338154
1970.627213
1876.744752
1781.498461
1685.763571
1590.460412
1496.523274
1404.861258
1316.313936
2092.025591
1995.582927
1896.735107
1796.364818
1695.439141
1594.985483
1496.056191
1399.681846
1306.816269
2123.077565
2021.567767
1917.376887
1811.468806
1704.912766
1598.85837
1494.495976
1393.001166
1295.466099
2155.638227
2048.699701
1938.753345
1826.849996
1714.17174
1602.007309
1491.708817
1384.626211
1282.021163
2189.874458
2077.118499
1960.967067
1842.562701
1723.210846
1604.357861