/*--------------------------------*- C++ -*----------------------------------*\
| =========                 |                                                 |
| \\      /  F ield         | OpenFOAM: The Open Source CFD Toolbox           |
|  \\    /   O peration     | Version:  2406                                  |
|   \\  /    A nd           | Website:  www.openfoam.com                      |
|    \\/     M anipulation  |                                                 |
\*---------------------------------------------------------------------------*/
FoamFile
{
    version     2.0;
    format      ascii;
    arch        "LSB;label=32;scalar=64";
    class       volScalarField;
    location    "8e-05/dielectric";
    object      voltExt;
}
// * * * * * * * * * * * * * * * * * * * * * * * * * * * * * * * * * * * * * //

dimensions      [1 2 -3 0 0 -1 0];

internalField   nonuniform List<scalar> 
3038
(
389.199142
634.9487724
1133.437745
1879.381071
2755.515692
3623.410091
4400.41446
5048.108061
5553.932161
5924.961095
6206.252732
6466.241871
6730.51005
6986.97582
388.6773593
634.4030031
1133.395033
1881.173144
2761.183396
3635.934229
4424.090459
5088.183366
5614.96796
6008.637474
6312.492743
6598.373243
6894.659477
7186.760918
388.1309262
633.775906
1133.109929
1882.426333
2765.860854
3646.740711
4444.925376
5123.992043
5670.473592
6086.311325
6413.301671
6727.109502
7060.176705
7396.125963
387.5598517
633.0673911
1132.581694
1883.137368
2769.535432
3655.782624
4462.762197
5155.09201
5719.458462
6156.259848
6506.258507
6849.558704
7224.750092
7616.233375
386.9641502
632.2773962
1131.809696
1883.303325
2772.195957
3663.018697
4477.460671
5181.072425
5760.935232
6216.591159
6588.389856
6961.594903
7383.99646
7847.168518
386.3438415
631.4058882
1130.793409
1882.921646
2773.832822
3668.41401
4488.901467
5201.572398
5793.978301
6265.35127
6656.23679
7057.570057
7529.926312
8085.012732
385.698951
630.4528638
1129.532421
1881.990146
2774.438066
3671.940571
4496.989648
5216.298461
5817.791376
6300.701832
6706.130906
7130.352366
7648.837328
8313.050009
7207.578188
7383.806304
7522.994219
7628.47462
7705.71939
7759.8979
7795.071081
7814.130652
7818.968531
7810.662082
7789.60807
7755.592347
7707.795932
7644.736673
7564.139643
7462.723425
7335.890019
7177.329814
6978.642684
6729.321505
6417.956203
6036.118167
7437.57297
7631.316631
7777.814648
7884.495646
7960.244126
8012.287851
8045.761475
8064.074478
8069.360356
8062.815047
8044.908025
8015.487991
7973.801874
7918.432494
7847.144671
7756.612233
7641.981276
7496.221251
7309.27823
7067.335991
6753.382502
6352.138138
7685.39028
7897.488783
8048.36302
8152.736826
8224.132804
8272.013205
8302.440582
8319.16427
8324.425673
8319.456017
8304.755775
8280.229003
8245.213157
8198.416831
8137.752442
8060.02162
7960.370945
7831.383469
7661.643411
7433.801633
7123.297005
6702.777156
7958.247397
8187.846636
8337.280014
8434.007321
8497.31221
8538.633861
8564.533755
8578.782604
8583.533041
8579.941247
8568.485661
8549.113917
8521.278589
8483.880147
8435.102897
8372.091315
8290.3514
8182.646897
8036.964504
7832.927344
7536.678573
7099.940297
8269.077093
8509.873685
8647.016026
8728.481322
8779.176427
8811.347011
8831.229676
8842.153192
8845.935827
8843.532831
8835.342583
8821.342164
8801.121807
8773.838665
8738.076815
8691.560098
8630.590039
8548.915022
8435.34127
8268.485645
8005.567404
7564.774506
8643.522205
8872.855021
8978.748518
9035.112082
9068.359743
9088.915316
9101.465543
9108.345273
9110.782616
9109.410963
9104.495072
9096.027864
9083.755485
9067.147084
9045.29996
9016.739396
8979.009229
8927.786393
8854.76982
8741.998495
8544.734825
8139.018443
9137.51217
9284.607467
9330.050658
9350.87639
9362.558291
9369.647143
9373.942383
9376.293023
9377.134751
9376.689779
9375.051005
9372.217281
9368.102604
9362.525594
9355.175855
9345.541877
9332.759649
9315.268753
9289.905787
9248.89469
9166.262528
8913.85808
5590.492503
5099.434069
4575.040098
4028.911664
3465.419588
2882.223971
2270.878885
1618.0767
918.7538438
5868.703621
5333.663689
4768.701195
4190.526744
3605.836201
3014.675213
2414.031158
1803.666257
1203.491701
6170.485637
5580.258671
4967.821932
4354.834262
3748.926478
3151.045299
2561.200687
1985.044627
1445.774747
6498.681879
5836.031901
5167.170307
4516.215812
3888.699488
3284.094008
2702.713036
2151.179178
1648.783081
6855.040754
6094.371638
5359.11803
4667.91102
4019.004104
3407.544757
2831.890453
2297.006591
1816.87236
7235.745123
6342.207702
5532.862534
4802.124963
4133.832956
3516.198684
2944.219025
2420.207922
1953.503117
7616.620484
6555.25
5674.120988
4910.531996
4227.726369
3605.984841
3036.72358
2519.726158
2061.037867
298.4106727
164.2285721
113.6756036
85.91272794
67.81025254
55.0465124
45.65685269
38.55548764
33.07135505
28.76151516
25.32145376
22.53610443
20.25060835
18.35176107
16.75574581
15.39979143
14.23638569
13.22920178
12.35019668
11.57752293
10.89401306
10.28607314
9.742870529
9.25573446
8.817713548
8.423253172
8.06796631
7.748478764
7.462338034
7.207983932
6.984785658
6.793155954
6.634763496
6.512883653
6.432958372
6.403489946
6.437506734
6.555106048
6.788275452
7.191265823
7.867176456
9.054660682
11.51251414
18.85927571
700.3948373
459.6437375
332.0224344
253.9213668
201.3214428
163.8064605
136.0664745
115.0275143
98.75011989
85.94091171
75.70569846
67.41083385
60.59907177
54.93564535
50.17240001
46.12330869
42.64744403
39.63697194
37.00858847
34.69735001
32.65219133
30.8326515
29.20646948
27.7478078
26.43593976
25.25429203
24.18976471
23.23227123
22.37446571
21.61165295
20.94189547
20.36634765
19.88987703
19.5220887
19.27895561
19.18540584
19.27951996
19.61968468
20.2977633
21.46600385
23.39944834
26.66210712
32.60597093
44.90720921
996.4922268
710.3612034
530.8038237
411.8545319
328.8726225
268.7043663
223.828578
189.6182978
163.0586495
142.1033619
125.3233455
111.6996198
100.4938556
91.1638942
83.30691691
76.6203682
70.87464931
65.89380199
61.54169901
57.71207147
54.32124994
51.30285645
48.60390338
46.18190521
44.00273829
42.0390792
40.26929691
38.67670026
37.24908562
35.97858053
34.86180887
33.90042138
33.10208011
32.4820762
32.06589212
31.89322406
32.02437858
32.55082691
33.61367349
35.43850251
38.40664678
43.21033251
51.18778138
64.88133537
1226.133596
918.9712577
705.6389168
555.5769808
447.4101524
367.5602582
307.3767813
261.1863533
225.152925
196.6161841
173.6939581
155.0330812
139.6475191
126.8101747
115.9790041
106.7457119
98.79965947
91.90222058
85.86838479
80.55342587
75.84316744
71.64685579
67.89191782
64.52006558
61.48439556
58.74727193
56.27882987
54.05595237
52.06163993
50.28477773
48.72034161
47.37009007
46.24384122
45.36156092
44.75665312
44.48105545
44.6131297
45.27013177
46.62863543
48.95939708
52.68872965
58.50470207
67.51149521
81.2836997
1408.269364
1090.508791
855.4756999
682.7465579
554.7595862
458.6458983
385.3962913
328.7413402
284.2852193
248.9106686
220.3808662
197.072419
177.7943347
161.6637689
148.0197231
136.3624211
126.3103171
117.5693849
109.9109982
103.1558195
97.16198145
91.81642579
87.02853297
82.7253587
78.84805594
75.34926789
72.19130024
69.34485911
66.78824127
64.50700833
62.49421502
60.7512236
59.28918418
58.1314388
57.31730112
56.90783304
56.99452213
57.71233427
59.25953595
61.92781061
66.14644383
72.53822062
81.9522655
95.3313624
1552.699313
1229.360627
980.6961863
792.2385368
649.5159387
540.6980005
456.8593107
391.4766194
339.8294265
298.5008264
265.0048444
237.5193836
214.6975859
195.5349576
179.2754967
165.344933
153.3029465
142.8088508
133.5967693
125.4574224
118.2246739
111.765678
105.9736507
100.7624051
96.06218045
91.81662139
87.98070276
84.5192738
81.4060563
78.62319832
76.16151217
74.02137966
72.21433417
70.76560231
69.71812698
69.13866584
69.12667003
69.82697382
71.44763837
74.2838548
78.74579978
85.37772679
94.82651012
107.6650436
1664.743096
1338.708307
1082.12868
883.6603698
730.8763758
612.8806435
521.0302213
448.7848663
391.2966245
344.9961858
307.2539364
276.1236077
250.1549742
228.2589817
209.6110019
193.5811485
179.6838863
167.5416762
156.8585874
147.4007137
138.9815429
131.4512976
124.6891888
118.5974345
113.0965543
108.1220136
103.622032
99.55599766
95.8932337
92.61238066
89.70165117
87.15982215
84.99780722
83.24112973
81.93395414
81.14522514
80.97733589
81.57792115
83.15538292
85.99746615
90.48777922
97.10419122
106.361317
118.6386971
55.92569791
96.36963534
131.1749695
160.6931714
185.9726013
207.866333
226.9992672
243.8290534
258.6992962
271.8759026
283.570657
293.9564874
303.1775294
311.3559388
318.596642
324.9907455
330.6180571
335.5489998
339.8460954
343.5651398
346.7561495
349.4641343
351.7297386
353.5897784
355.0776943
356.2239381
357.0563023
357.6002044
357.8789322
357.9138586
357.7246293
357.329329
356.7446273
355.9859076
355.0673818
354.0021916
352.8024995
351.4795713
350.0438499
348.5050227
346.8720813
345.1533765
343.3566665
341.4891617
339.5575656
337.568111
335.5265955
333.4384124
331.3085796
329.1417664
326.9423171
324.7142734
322.4613943
320.1871755
317.8948666
315.5874881
313.2678466
310.9385496
308.6020184
306.2605009
303.9160826
301.5706972
299.2261366
296.8840597
294.546001
292.2133786
289.8875014
287.5695765
285.2607159
282.9619423
280.6741951
278.3983363
276.135155
273.8853723
271.6496464
269.4285757
267.2227035
265.0325211
262.8584716
260.7009526
258.5603192
256.4368868
254.3309338
252.2427037
250.1724076
248.1202264
246.0863127
244.0707931
242.0737696
240.0953218
238.1355081
236.1943674
234.2719209
232.3681726
230.4831112
228.6167109
226.7689327
224.9397251
223.1290252
221.3367596
219.5628451
217.8071895
216.0696923
214.3502456
212.6487342
210.9650368
209.2990262
207.6505699
206.0195307
204.4057669
202.8091332
201.2294808
199.6666575
198.1205087
196.5908775
195.0776046
193.5805293
192.0994891
190.6343205
189.1848589
187.750939
186.3323948
184.9290599
183.540768
182.1673524
180.8086466
179.4644846
178.1347005
176.8191289
175.5176052
174.2299654
172.9560462
171.6956854
170.4487216
169.2149944
167.9943448
166.7866146
165.591647
164.4092864
163.2393784
162.0817702
160.9363102
159.8028482
158.6812354
157.5713245
156.4729698
155.3860269
154.310353
153.2458068
152.1922486
151.1495402
150.117545
149.096128
148.0851556
147.0844961
146.0940192
145.1135961
144.1430998
143.1824049
142.2313873
141.289925
140.3578972
139.4351849
138.5216706
137.6172385
136.7217742
135.8351649
134.9572994
134.0880679
133.2273621
132.3750751
131.5311016
130.6953373
129.8676795
129.0480267
128.2362788
127.4323368
126.636103
125.847481
125.0663755
124.2926925
123.5263394
122.7672247
122.0152582
121.2703509
120.5324154
119.8013652
119.0771155
118.3595823
117.6486833
116.9443372
116.2464639
115.5549845
114.8698211
114.190897
113.5181365
112.8514651
112.190809
111.5360958
110.8872538
110.2442124
109.6069021
108.9752543
108.3492014
107.7286767
107.1136145
106.50395
105.8996192
105.300559
104.7067071
104.1180019
103.5343827
102.9557898
102.3821638
101.8134466
101.2495808
100.6905096
100.1361772
99.58652884
99.04151025
98.50106824
97.9651505
97.4337056
96.90668315
96.38403377
95.86570919
95.35166219
94.84184668
94.33621749
93.83473025
93.3373412
92.84400676
92.3546833
91.8693268
91.38789256
90.91033517
90.43660861
89.96666657
89.50046311
89.03795339
88.57909447
88.12384603
87.67217081
87.22403444
86.77940478
86.33825072
85.90054051
85.46624017
85.03531228
84.60771568
84.1834062
83.76233865
83.34446935
82.92975883
82.51817361
82.10968655
81.70427538
81.30191979
80.90259791
80.50628352
80.11294499
79.72254639
79.33505049
78.95042233
78.56863158
78.18965281
77.81346329
77.44003948
77.06935408
76.70137528
76.33606879
75.97340177
75.61334665
75.25588279
74.90099502
74.54866974
74.19889038
73.85163471
73.50687485
73.16457973
72.82471792
72.48725956
72.15217662
71.81944224
71.48903025
71.16091526
70.83507338
70.51148287
70.19012426
69.87097932
69.55402956
69.23925533
68.92663657
68.61615483
68.30779467
68.00154385
67.69739127
67.39532463
67.09532967
66.79738365
66.50144116
66.20743145
65.91526289
65.62482386
65.33599959
65.04876187
64.74800014
64.41767936
64.05524387
63.65834639
63.22442605
62.75078173
62.23431931
61.67172851
61.05920364
60.39271357
59.66809172
58.88130591
58.02834375
57.10570829
56.11008447
55.03857626
53.88882241
52.6587101
51.34694264
49.95268993
48.47600019
46.91812703
45.28107338
43.56887103
41.78661068
39.9415317
38.04280918
36.10177993
34.13220307
32.1508125
30.1768763
28.23394523
26.34890058
24.55456955
22.8893363
21.40069087
20.14662608
19.2016201
18.66268651
72.71729904
105.2600622
135.9114982
163.2663242
187.3867799
208.6476087
227.4345123
244.0794382
258.8569487
271.9937005
283.6786078
294.0710628
303.3071316
311.5041657
318.7642646
325.1769161
330.821049
335.766659
340.0761148
343.8052218
347.0040997
349.7179115
351.9874776
353.8497969
355.3384905
356.4841823
357.314826
357.8559862
358.1310837
358.1616103
357.9673184
357.5663882
356.9755754
356.2103412
355.2849667
354.212655
353.0056222
351.6751806
350.2318144
348.6852474
347.0445045
345.3179661
343.513417
341.638091
339.6987113
337.7015282
335.6523538
333.5565942
331.4192789
329.2450872
327.0383727
324.8031845
322.5432879
320.2621835
317.9631246
315.6491343
313.3230215
310.9873952
308.6446781
306.2971189
303.9468038
301.5956667
299.2454991
296.8979589
294.5545792
292.2167764
289.8858575
287.5630275
285.2493962
282.9459844
280.6537295
278.3734915
276.1060576
273.8521471
271.6124162
269.3874614
267.1778237
264.9839927
262.806409
260.6454677
258.5015218
256.3748839
254.2658298
252.1746005
250.1014044
248.0464197
246.0097966
243.9916591
241.9921067
240.0112168
238.0490456
236.10563
234.1809888
232.2751244
230.3880235
228.5196583
226.6699882
224.8389597
223.0265083
221.2325589
219.4570263
217.6998167
215.960828
214.2399502
212.5370667
210.8520544
209.1847845
207.5351228
205.9029304
204.2880644
202.6903775
201.1097196
199.5459372
197.9988741
196.468372
194.9542705
193.4564073
191.9746189
190.5087405
189.0586063
187.6240498
186.204904
184.8010014
183.4121746
182.0382559
180.679078
179.3344737
178.0042762
176.6883194
175.3864377
174.0984662
172.8242409
171.5635988
170.3163777
169.0824165
167.8615554
166.6536355
165.4584992
164.2759905
163.1059542
161.9482368
160.8026862
159.6691514
158.5474832
157.4375336
156.3391564
155.2522066
154.1765409
153.1120175
152.0584961
151.015838
149.9839061
148.9625649
147.9516805
146.9511205
145.9607541
144.9804523
144.0100875
143.0495339
142.0986671
141.1573645
140.2255051
139.3029695
138.3896398
137.4854
136.5901352
135.7037326
134.8260806
133.9570693
133.0965901
132.2445362
131.4008017
130.5652827
129.7378761
128.9184803
128.1069951
127.3033215
126.5073615
125.7190185
124.9381972
124.1648033
123.3987438
122.6399271
121.8882627
121.1436614
120.4060353
119.6752978
118.9513639
118.2341494
117.5235717
116.8195495
116.1220024
115.4308515
114.7460189
114.0674277
113.3950022
112.7286675
112.0683501
111.4139771
110.7654769
110.1227787
109.4858128
108.8545107
108.2288045
107.6086275
106.9939139
106.3845989
105.7806184
105.1819092
104.588409
104.0000561
103.4167898
102.8385501
102.2652777
101.6969144
101.1334026
100.5746857
100.0207079
99.47141451
98.92675143
98.38666557
97.85110475
97.32001766
96.7933539
96.27106406
95.75309968
95.23941327
94.72995837
94.22468934
93.72356131
93.22653002
92.73355144
92.24458164
91.75957646
91.27849134
90.80128122
90.32790076
89.85830449
89.39244735
88.93028537
88.47177614
88.01687947
87.5655576
87.11777509
86.67349825
86.23269424
85.79532976
85.36136993
84.93077746
84.50351244
84.07953296
83.65879661
83.2412623
82.82689219
82.41565292
82.00751582
81.60245579
81.20044929
80.80147183
80.40549608
80.01249113
79.6224232
79.2352577
78.85096153
78.46950469
78.09086039
77.71500374
77.3419094
76.97154984
76.60389487
76.23891296
75.8765738
75.51685077
75.15972188
74.80516886
74.45317453
74.10371987
73.7567821
73.4123346
73.0703483
72.73079359
72.3936416
72.05886471
71.72643631
71.39633061
71.06852277
70.74298932
70.41970851
70.0986603
69.77982574
69.46318612
69.14872254
68.83641657
68.52625159
68.21821419
67.91229467
67.60848634
67.30678359
67.00717834
66.70965105
66.41415693
66.12061554
65.82890314
65.53886191
65.25036498
64.9633308
64.66251355
64.33215349
63.96963332
63.57275947
63.13905131
62.66583522
62.1500656
61.58835179
60.97682741
60.31136998
59.58775546
58.80190122
57.94984453
57.02809705
56.03341092
54.96293951
53.81433514
52.5855183
51.27518197
49.88249759
48.40750506
46.8514476
45.21632556
43.50616857
41.72604447
39.88322367
37.98682052
36.04821448
34.081105
32.10222881
30.13082477
28.19040425
26.30782297
24.51585402
22.85283125
21.36617658
20.113799
19.17007
18.6318701
87.72783248
114.8831704
141.9250831
167.0923577
189.9086166
210.3870715
228.6992972
245.0529515
259.6498839
272.673564
284.286851
294.6331993
303.838817
312.0149089
319.2597239
325.6603352
331.2941627
336.2302687
340.5304563
344.250201
347.4394427
350.14326
352.4024474
354.2540145
355.7316156
356.8659204
357.6849341
358.2142739
358.4774103
358.4958808
358.2894791
357.8764238
357.2735067
356.4962222
355.5588814
354.474713
353.2559546
351.9139361
350.4591561
348.9013517
347.2495592
345.5121702
343.6969788
341.8112262
339.8616412
337.8544775
335.7955496
333.6902651
331.5436546
329.3603985
327.1448505
324.9010598
322.6327904
320.3435409
318.0365618
315.7148728
313.3812792
311.0383864
308.6886135
306.3342061
303.9772467
301.6196656
299.2632504
296.9096549
294.5604075
292.21692
289.8804946
287.5523317
285.2335366
282.9251256
280.6280322
278.3431124
276.0711496
273.8128597
271.568895
269.3398489
267.1262589
264.9286111
262.7473426
260.5828451
258.435468
256.3055205
254.1932747
252.0989681
250.0228056
247.964962
245.9255842
243.9047928
241.9026845
239.9193335
237.9547934
236.0090981
234.0822643
232.1742916
230.2851645
228.4148531
226.5633144
224.730493
222.916322
221.1207244
219.3436129
217.5848917
215.8444566
214.1221958
212.4179906
210.7317161
209.0632415
207.4124309
205.7791436
204.1632347
202.5645557
200.9829544
199.4182759
197.8703626
196.3390544
194.8241897
193.3256046
191.8431345
190.3766131
188.9258733
187.4907475
186.0710675
184.6666646
183.2773703
181.903016
180.5434331
179.1984535
177.8679096
176.5516341
175.2494606
173.9612235
172.6867577
171.4258994
170.1784858
168.9443549
167.723346
166.5152997
165.3200578
164.1374632
162.9673603
161.809595
160.6640143
159.5304669
158.4088027
157.2988735
156.2005321
155.1136331
154.0380327
152.9735885
151.9201596
150.8776071
149.8457931
148.8245817
147.8138385
146.8134306
145.8232269
144.8430978
143.8729153
142.9125531
141.9618866
141.0207926
140.0891498
139.1668384
138.2537403
137.349739
136.4547195
135.5685686
134.6911746
133.8224273
132.9622181
132.1104399
131.2669868
130.4317546
129.6046402
128.7855421
127.9743598
127.1709941
126.3753471
125.5873219
124.8068229
124.0337558
123.2680272
122.5095452
121.758219
121.0139593
120.2766778
119.5462878
118.8227037
118.1058415
117.3956183
116.6919525
115.9947639
115.3039733
114.6195028
113.9412754
113.2692152
112.6032474
111.9432983
111.2892948
110.6411652
109.9988387
109.3622453
108.7313165
108.1059842
107.4861818
106.8718434
106.2629041
105.6592997
105.0609671
104.4678438
103.8798682
103.2969793
102.7191171
102.1462222
101.5782363
101.0151018
100.4567621
99.90316152
99.35424527
98.80995952
98.2702513
97.73506854
97.20436002
96.67807534
96.15616503
95.63858045
95.12527386
94.61619844
94.11130814
93.61055767
93.11390235
92.62129784
92.13269996
91.64806452
91.16734709
90.69050298
90.21748735
89.74825539
89.28276275
88.82096602
88.36282316
87.90829397
87.45734027
87.00992574
86.56601553
86.12557551
85.68857131
85.2549675
84.82472695
84.39781076
83.97417875
83.55379053
83.13660689
82.7225911
82.3117099
81.90393346
81.49923468
81.09758773
80.69896626
80.3033421
79.91068475
79.52096185
79.13414051
78.75018891
78.36907728
77.99077804
77.61526497
77.2425117
76.8724906
76.50517257
76.14052787
75.77852779
75.41914624
75.06236029
74.70814954
74.35649442
74.00737415
73.66076546
73.31664241
72.97497728
72.63574167
72.2989076
71.9644479
71.63233629
71.30254731
70.97505654
70.64984076
70.3268782
70.00614852
69.68763238
69.371311
69.05716607
68.74518025
68.4353384
68.12762895
67.82204497
67.51858428
67.21724775
66.91803351
66.62092518
66.32587614
66.03279531
65.74152784
65.45185253
65.16363491
64.87687602
64.57614544
64.24583782
63.88333902
63.48656858
63.0531487
62.58042898
62.06537654
61.50453577
60.89397974
60.22951185
59.5068633
58.72191885
57.8707596
56.94991315
55.95618877
54.88678275
53.73936071
52.51186797
51.20299122
49.81190076
48.33862814
46.78441038
45.15124049
43.44315145
41.66518476
39.82464368
37.93058109
35.99441919
34.02979694
32.05345471
30.08460057
28.14670768
26.26660483
24.47701185
22.8162114
21.33155775
20.08087541
19.13842933
18.60096619
101.1125049
124.5505617
148.665339
171.829631
193.3365848
212.9661951
230.7232847
246.7074605
261.0527344
273.9002539
285.3863554
295.6377176
304.769819
312.8869236
320.0827391
326.4413338
332.0381167
336.940791
341.2102332
344.9012821
348.0634371
350.7414678
352.9759505
354.8037387
356.258376
357.3704542
358.1679231
358.6763587
358.9191986
358.9179524
358.6923902
358.2607117
357.6396941
356.8448211
355.8903948
354.7896341
353.5547657
352.1971074
350.7271459
349.1546068
347.4885177
345.7372616
343.9086254
342.0098422
340.0476313
338.0282366
335.957462
333.8407053
331.6829878
329.4889814
327.2630322
325.0091811
322.731184
320.4325303
318.1164611
315.7859864
313.4439022
311.0928051
308.7351059
306.3730425
304.0086899
301.6439712
299.2806665
296.9204219
294.5647584
292.2150799
289.8726812
287.5387553
285.2144005
282.9006267
280.5983609
278.3084534
276.031682
273.7687573
271.5203266
269.2869782
267.069245
264.8676081
262.6825002
260.5143084
258.3633773
256.2300117
254.1144793
252.0170129
249.9378132
247.8770507
245.8348681
243.8113823
241.806686
239.82085
237.8539242
235.9059397
233.9769099
232.0668317
230.1756867
228.3034424
226.4500532
224.6154612
222.7995972
221.0023815
219.2237249
217.463529
215.7216874
213.9980861
212.2926042
210.6051147
208.9354847
207.2835762
205.6492467
204.0323493
202.4327335
200.8502455
199.2847287
197.7360235
196.2039687
194.6884007
193.1891544
191.7060635
190.2389604
188.7876767
187.3520435
185.9318912
184.5270502
183.1373505
181.7626225
180.4026965
179.0574034
177.7265746
176.4100417
175.1076376
173.8191954
172.5445495
171.2835351
170.0359885
168.801747
167.5806492
166.3725349
165.1772449
163.9946218
162.8245091
161.666752
160.5211971
159.3876921
158.2660867
157.1562317
156.0579796
154.9711843
153.8957015
152.8313882
151.7781032
150.7357067
149.7040605
148.6830283
147.672475
146.6722674
145.6822739
144.7023643
143.7324104
142.7722854
141.8218641
140.8810231
139.9496408
139.0275968
138.1147729
137.2110521
136.3163192
135.4304609
134.5533651
133.6849215
132.8250213
131.9735573
131.1304235
130.2955157
129.4687307
128.6499668
127.8391234
127.0361014
126.2408025
125.4531298
124.6729876
123.900281
123.1349167
122.3768024
121.625847
120.8819608
120.1450554
119.4150437
118.69184
117.97536
117.2655207
116.5622405
115.8654389
115.1750368
114.4909561
113.8131198
113.141452
112.4758778
111.8163231
111.162715
110.5149816
109.8730518
109.2368557
108.6063245
107.9813902
107.361986
106.748046
106.1395053
105.5362998
104.9383661
104.3456419
103.7580653
103.1755753
102.5981118
102.0256153
101.4580274
100.8952904
100.3373477
99.78414378
99.23562387
98.69173428
98.1524222
97.61763569
97.08732359
96.56143554
96.03992197
95.52273408
95.00982385
94.50114414
93.99664854
93.49629138
93.00002766
92.50781277
92.0196024
91.53535239
91.05501844
90.57855621
90.10592127
89.63706934
89.17195655
88.71053988
88.25277751
87.79862916
87.34805625
86.90102178
86.45749001
86.01742589
85.58079432
85.14755951
84.71768459
84.29113144
83.86786118
83.44783495
83.03101484
82.61736496
82.20685205
81.79944545
81.39511665
80.99383815
80.59558229
80.20032026
79.80802179
79.41865539
79.03218932
78.64859257
78.26783558
77.88989035
77.51472985
77.14232713
76.77265457
76.40568381
76.04138625
75.67973419
75.32070182
74.96426555
74.61040352
74.2590945
73.91031649
73.56404578
73.22025683
72.87892272
72.54001596
72.20350923
71.86937581
71.53758974
71.20812588
70.88096009
70.55606933
70.23343184
69.9130271
69.59483558
69.27883853
68.96501804
68.65335757
68.34384306
68.03646445
67.73121717
67.42810294
67.1271278
66.82829452
66.53158709
66.23695294
65.9442917
65.65343306
65.36408866
65.07605411
64.78947327
64.48884825
64.15865571
63.79631725
63.39977713
62.96674438
62.49458479
61.98025555
61.42025058
60.81059743
60.14705062
59.42531614
58.64126162
57.79100618
56.87109277
55.87837434
54.81008022
53.66388675
52.43775609
51.13037286
49.74090468
48.26937559
46.71702143
45.08582355
43.37982428
41.60403521
39.76579477
37.8740932
35.94039594
33.97828033
32.00449132
30.0382046
28.10285622
26.22524673
24.43804349
22.77947711
21.29683466
20.04785557
19.10669831
18.56997496
113.1361529
133.9555075
155.7735902
177.2087236
197.491562
216.2704002
233.4336975
248.9964117
263.0352867
275.6537779
286.9635764
297.0751795
306.0933407
314.1151268
321.229348
327.516687
333.0501731
337.8958095
342.1132397
345.7563963
348.8741011
351.5106074
353.7060904
355.4970882
356.9168947
357.9959035
358.7619052
359.2403433
359.4545413
359.4259076
359.1741234
358.7173116
358.0721854
357.2541743
356.2775328
355.1554355
353.9000654
352.5226983
351.0337812
349.4430048
347.7593662
345.9912221
344.146335
342.2319143
340.2546557
338.2207788
336.1360642
334.0058879
331.8352519
329.6288106
327.3908938
325.1255269
322.8364502
320.5271369
318.2008118
315.8604691
313.5088894
311.1486552
308.7821644
306.4116427
304.0391539
301.6666101
299.2957805
296.9283003
294.5656796
292.2093114
289.8604803
287.5203692
285.1900669
282.8705745
280.5628107
278.2676179
275.9857667
273.7179604
271.46484
269.2269871
267.0049285
264.7991394
262.6100466
260.4380315
258.283433
256.1465503
254.0276457
251.9269466
249.8446485
247.7809167
245.7358891
243.7096778
241.7023711
239.7140356
237.7447173
235.7944435
233.863224
231.9510525
230.0579073
228.1837529
226.3285407
224.4922102
222.6746891
220.8758953
219.0957368
217.3341126
215.5909139
213.866024
212.1593199
210.4706719
208.799945
207.1469991
205.5116892
203.8938667
202.2933788
200.71007
199.1437815
197.5943523
196.0616191
194.5454168
193.0455786
191.5619368
190.0943222
188.642565
187.2064949
185.7859411
184.3807324
182.990698
181.6156667
180.255468
178.9099316
177.5788876
176.262167
174.9596014
173.6710231
172.3962655
171.135163
169.887551
168.6532661
167.4321459
166.2240294
165.028757
163.8461703
162.6761123
161.5184273
160.3729613
159.2395615
158.1180767
157.0083574
155.9102553
154.823624
153.7483183
152.6841948
151.6311117
150.5889288
149.5575075
148.5367106
147.5264029
146.5264506
145.5367215
144.5570852
143.5874128
142.6275772
141.6774528
140.7369159
139.8058443
138.8841174
137.9716165
137.0682246
136.173826
135.2883072
134.411556
133.5434618
132.6839157
131.8328105
130.99004
130.1555
129.3290871
128.5106998
127.7002373
126.8976002
126.1026904
125.3154107
124.5356651
123.7633586
122.9983976
122.2406894
121.4901428
120.7466676
120.0101751
119.2805781
118.5577905
117.841728
117.1323074
116.4294468
115.733066
115.0430856
114.3594275
113.6820147
113.0107712
112.345622
111.686493
111.033311
110.3860041
109.744501
109.1087317
108.4786271
107.8541195
107.2351417
106.6216281
106.0135136
105.410734
104.8132262
104.2209275
103.6337761
103.051711
102.4746718
101.9025989
101.3354338
100.7731188
100.2155973
99.6628136
99.1147133
98.57124279
98.03234941
97.49798137
96.96808762
96.44261778
95.92152222
95.40475195
94.8922587
94.383995
93.87991408
93.37996997
92.88411737
92.39231151
91.90450803
91.4206628
90.94073173
90.46467077
89.99243586
89.52398309
89.05926895
88.59825068
88.14088652
87.68713604
87.23696034
86.79032184
86.34718415
85.90751156
85.4712685
85.03841901
84.60892645
84.18275338
83.75986192
83.34021429
82.92377358
82.51050444
82.10037359
81.6933498
81.28940351
80.88850607
80.49062884
80.09574253
79.70381696
79.3148212
78.92872422
78.54549557
78.16510587
77.78752689
77.41273118
77.04069146
76.67138019
76.3047695
75.94083154
75.57953923
75.22086688
74.86479043
74.51128703
74.16033431
73.81190939
73.46598823
73.12254544
72.78155462
72.44298891
72.10682147
71.77302599
71.44157678
71.11244897
70.78561863
70.46106286
70.13875991
69.81868918
69.50083104
69.18516682
68.87167887
68.56035119
68.25117046
67.94412766
67.63921982
67.33645116
67.03583096
66.7373639
66.44103066
66.14676692
65.85446117
65.56395287
65.27494262
64.98714099
64.70077028
64.40035262
64.070404
63.70843865
63.31233033
62.8798206
62.4082866
61.89467267
61.3354439
60.72660873
60.06390333
59.34303108
58.5598546
57.71052433
56.79159212
55.79993896
54.73281576
53.5879059
52.36318112
51.05732864
49.66951267
48.19975119
46.64928441
45.02007792
43.31618981
41.54259796
39.70667877
37.81735821
35.88614587
33.92655606
31.95533936
29.99163743
28.05885032
26.18374905
24.39894926
22.74262865
21.26200755
20.01473966
19.0748771
18.53889652
124.0257448
142.9736814
163.0304391
183.0345202
202.2295264
220.2008203
236.7645416
251.8760768
265.5684925
277.9147105
289.0054283
298.9367227
307.8033723
315.6954674
322.6968694
328.8846911
334.3293399
339.0948598
343.2394107
346.8157865
349.871921
352.4513617
354.5937117
356.3350414
357.7082618
358.7434538
359.4681489
359.9075708
360.084849
360.0212184
359.7362054
359.2477992
358.5725997
357.7259404
356.7219912
355.573848
354.2936181
352.8925042
351.3808862
349.7683953
348.0639774
346.2759451
344.4120206
342.4793747
340.4846644
338.4340709
336.3333382
334.1878089
332.002455
329.7819046
327.5304636
325.2521346
322.9506348
320.6294144
318.2916749
315.9403881
313.5783133
311.2080135
308.831869
306.4520893
304.0707234
301.6896685
299.3106796
296.9353777
294.5652586
292.2017017
289.845978
287.4992579
285.1626183
282.837049
280.5234583
278.2226791
275.9354725
273.6625336
271.4044947
269.16193
266.9353585
264.7252485
262.5320194
260.3560458
258.1976601
256.0571549
253.9347859
251.8307743
249.7453095
247.6785507
245.6306303
243.6016549
241.5917077
239.6008504
237.6291244
235.6765529
233.7431416
231.8288803
229.933744
228.0576936
226.2006772
224.3626311
222.5434802