/*--------------------------------*- C++ -*----------------------------------*\
  =========                 |
  \\      /  F ield         | OpenFOAM: The Open Source CFD Toolbox
   \\    /   O peration     | Website:  https://openfoam.org
    \\  /    A nd           | Version:  7
     \\/     M anipulation  |
\*---------------------------------------------------------------------------*/
FoamFile
{
    version     2.0;
    format      ascii;
    class       volVectorField;
    location    "5e-13/dielectric";
    object      ED;
}
// * * * * * * * * * * * * * * * * * * * * * * * * * * * * * * * * * * * * * //

dimensions      [1 1 -3 0 0 -1 0];

internalField   nonuniform List<vector> 
5050
(
(39.8733 -2.39595e+07 -0)
(119.774 -2.39593e+07 -0)
(200.14 -2.3959e+07 -0)
(281.281 -2.39585e+07 -0)
(363.513 -2.39578e+07 -0)
(447.154 -2.3957e+07 -0)
(532.528 -2.39561e+07 -0)
(619.964 -2.39549e+07 -0)
(709.801 -2.39536e+07 -0)
(802.384 -2.39521e+07 -0)
(898.069 -2.39504e+07 -0)
(997.224 -2.39485e+07 -0)
(1100.23 -2.39464e+07 -0)
(1207.48 -2.39441e+07 -0)
(1319.38 -2.39416e+07 -0)
(1436.36 -2.39388e+07 -0)
(1558.86 -2.39358e+07 -0)
(1687.35 -2.39326e+07 -0)
(1822.31 -2.39291e+07 -0)
(1964.25 -2.39253e+07 -0)
(2113.69 -2.39212e+07 -0)
(2271.2 -2.39169e+07 -0)
(2437.36 -2.39122e+07 -0)
(2612.78 -2.39071e+07 -0)
(2798.12 -2.39017e+07 -0)
(2994.04 -2.38959e+07 -0)
(3201.26 -2.38898e+07 -0)
(3420.54 -2.38831e+07 -0)
(3652.65 -2.38761e+07 -0)
(3898.43 -2.38685e+07 -0)
(4158.75 -2.38605e+07 -0)
(4434.54 -2.38519e+07 -0)
(4726.74 -2.38428e+07 -0)
(5036.37 -2.3833e+07 -0)
(5364.51 -2.38227e+07 -0)
(5712.26 -2.38116e+07 -0)
(6080.79 -2.37998e+07 -0)
(6471.32 -2.37873e+07 -0)
(6885.16 -2.3774e+07 -0)
(7323.63 -2.37598e+07 -0)
(7788.14 -2.37447e+07 -0)
(8280.17 -2.37287e+07 -0)
(8801.23 -2.37116e+07 -0)
(9352.92 -2.36935e+07 -0)
(9936.9 -2.36742e+07 -0)
(10554.9 -2.36538e+07 -0)
(11208.7 -2.3632e+07 -0)
(11900 -2.3609e+07 -0)
(12631 -2.35845e+07 -0)
(13403.4 -2.35585e+07 -0)
(14219.3 -2.35309e+07 -0)
(15080.7 -2.35017e+07 -0)
(15989.8 -2.34706e+07 -0)
(16948.7 -2.34377e+07 -0)
(17959.5 -2.34029e+07 -0)
(19024.5 -2.3366e+07 -0)
(20145.7 -2.33269e+07 -0)
(21325.5 -2.32854e+07 -0)
(22565.9 -2.32416e+07 -0)
(23869.1 -2.31952e+07 -0)
(25237.2 -2.31462e+07 -0)
(26672.2 -2.30944e+07 -0)
(28175.9 -2.30396e+07 -0)
(29750.2 -2.29817e+07 -0)
(31396.7 -2.29207e+07 -0)
(33116.9 -2.28562e+07 -0)
(34912 -2.27883e+07 -0)
(36783.1 -2.27166e+07 -0)
(38731 -2.26412e+07 -0)
(40756 -2.25618e+07 -0)
(42858.3 -2.24783e+07 -0)
(45037.6 -2.23904e+07 -0)
(47293.2 -2.22982e+07 -0)
(49624 -2.22013e+07 -0)
(52028.2 -2.20998e+07 -0)
(54503.8 -2.19933e+07 -0)
(57047.9 -2.18818e+07 -0)
(59657.2 -2.17652e+07 -0)
(62327.7 -2.16432e+07 -0)
(65054.9 -2.15159e+07 -0)
(67833.3 -2.13831e+07 -0)
(70657 -2.12446e+07 -0)
(73519.4 -2.11005e+07 -0)
(76413.2 -2.09506e+07 -0)
(79330.4 -2.07949e+07 -0)
(82262.4 -2.06333e+07 -0)
(85200 -2.04658e+07 -0)
(88133.5 -2.02925e+07 -0)
(91052.8 -2.01133e+07 -0)
(93947.2 -1.99282e+07 -0)
(96805.8 -1.97374e+07 -0)
(99617.4 -1.9541e+07 -0)
(102371 -1.93389e+07 -0)
(105055 -1.91314e+07 -0)
(107657 -1.89186e+07 -0)
(110169 -1.87007e+07 -0)
(112577 -1.84778e+07 -0)
(114872 -1.82503e+07 -0)
(117045 -1.80182e+07 -0)
(119084 -1.7782e+07 -0)
(119.465 -2.39596e+07 -0)
(358.858 -2.39595e+07 -0)
(599.642 -2.39591e+07 -0)
(842.753 -2.39587e+07 -0)
(1089.13 -2.3958e+07 -0)
(1339.73 -2.39572e+07 -0)
(1595.52 -2.39562e+07 -0)
(1857.49 -2.39551e+07 -0)
(2126.66 -2.39538e+07 -0)
(2404.05 -2.39523e+07 -0)
(2690.74 -2.39506e+07 -0)
(2987.82 -2.39487e+07 -0)
(3296.44 -2.39466e+07 -0)
(3617.78 -2.39443e+07 -0)
(3953.06 -2.39418e+07 -0)
(4303.56 -2.39391e+07 -0)
(4670.6 -2.39361e+07 -0)
(5055.58 -2.39329e+07 -0)
(5459.95 -2.39294e+07 -0)
(5885.23 -2.39256e+07 -0)
(6333.01 -2.39215e+07 -0)
(6804.95 -2.39172e+07 -0)
(7302.82 -2.39125e+07 -0)
(7828.44 -2.39075e+07 -0)
(8383.77 -2.39021e+07 -0)
(8970.82 -2.38963e+07 -0)
(9591.74 -2.38902e+07 -0)
(10248.8 -2.38836e+07 -0)
(10944.3 -2.38766e+07 -0)
(11680.8 -2.38691e+07 -0)
(12460.8 -2.3861e+07 -0)
(13287.2 -2.38525e+07 -0)
(14162.8 -2.38434e+07 -0)
(15090.6 -2.38337e+07 -0)
(16073.9 -2.38233e+07 -0)
(17116 -2.38123e+07 -0)
(18220.3 -2.38006e+07 -0)
(19390.7 -2.37881e+07 -0)
(20630.8 -2.37748e+07 -0)
(21944.8 -2.37607e+07 -0)
(23336.9 -2.37457e+07 -0)
(24811.5 -2.37297e+07 -0)
(26373.1 -2.37127e+07 -0)
(28026.5 -2.36946e+07 -0)
(29776.7 -2.36754e+07 -0)
(31628.9 -2.3655e+07 -0)
(33588.3 -2.36334e+07 -0)
(35660.6 -2.36104e+07 -0)
(37851.4 -2.3586e+07 -0)
(40166.6 -2.35601e+07 -0)
(42612.3 -2.35326e+07 -0)
(45194.5 -2.35034e+07 -0)
(47919.7 -2.34725e+07 -0)
(50794.1 -2.34397e+07 -0)
(53824.4 -2.3405e+07 -0)
(57017.1 -2.33681e+07 -0)
(60378.7 -2.33292e+07 -0)
(63915.8 -2.32879e+07 -0)
(67635 -2.32442e+07 -0)
(71542.6 -2.31979e+07 -0)
(75644.8 -2.3149e+07 -0)
(79947.8 -2.30973e+07 -0)
(84457.2 -2.30427e+07 -0)
(89178.4 -2.29849e+07 -0)
(94116.5 -2.2924e+07 -0)
(99275.8 -2.28597e+07 -0)
(104660 -2.27919e+07 -0)
(110273 -2.27205e+07 -0)
(116116 -2.26452e+07 -0)
(122191 -2.25659e+07 -0)
(128498 -2.24825e+07 -0)
(135036 -2.23949e+07 -0)
(141804 -2.23028e+07 -0)
(148798 -2.22061e+07 -0)
(156013 -2.21046e+07 -0)
(163443 -2.19983e+07 -0)
(171079 -2.1887e+07 -0)
(178910 -2.17705e+07 -0)
(186927 -2.16486e+07 -0)
(195113 -2.15214e+07 -0)
(203454 -2.13887e+07 -0)
(211932 -2.12503e+07 -0)
(220527 -2.11063e+07 -0)
(229216 -2.09564e+07 -0)
(237976 -2.08007e+07 -0)
(246781 -2.06392e+07 -0)
(255604 -2.04717e+07 -0)
(264415 -2.02983e+07 -0)
(273183 -2.01191e+07 -0)
(281877 -1.9934e+07 -0)
(290464 -1.97431e+07 -0)
(298911 -1.95465e+07 -0)
(307182 -1.93444e+07 -0)
(315245 -1.91367e+07 -0)
(323064 -1.89237e+07 -0)
(330608 -1.87056e+07 -0)
(337844 -1.84826e+07 -0)
(344740 -1.82547e+07 -0)
(351266 -1.80224e+07 -0)
(357393 -1.77859e+07 -0)
(198.594 -2.39599e+07 -0)
(596.55 -2.39598e+07 -0)
(996.82 -2.39595e+07 -0)
(1400.96 -2.3959e+07 -0)
(1810.53 -2.39583e+07 -0)
(2227.11 -2.39575e+07 -0)
(2652.33 -2.39566e+07 -0)
(3087.83 -2.39554e+07 -0)
(3535.28 -2.39541e+07 -0)
(3996.42 -2.39526e+07 -0)
(4473.01 -2.3951e+07 -0)
(4966.88 -2.39491e+07 -0)
(5479.94 -2.3947e+07 -0)
(6014.14 -2.39447e+07 -0)
(6571.52 -2.39423e+07 -0)
(7154.21 -2.39395e+07 -0)
(7764.41 -2.39366e+07 -0)
(8404.43 -2.39334e+07 -0)
(9076.69 -2.39299e+07 -0)
(9783.72 -2.39262e+07 -0)
(10528.2 -2.39222e+07 -0)
(11312.8 -2.39178e+07 -0)
(12140.5 -2.39132e+07 -0)
(13014.4 -2.39082e+07 -0)
(13937.7 -2.39029e+07 -0)
(14913.7 -2.38971e+07 -0)
(15946.1 -2.3891e+07 -0)
(17038.5 -2.38845e+07 -0)
(18194.9 -2.38775e+07 -0)
(19419.5 -2.38701e+07 -0)
(20716.5 -2.38621e+07 -0)
(22090.6 -2.38536e+07 -0)
(23546.6 -2.38446e+07 -0)
(25089.4 -2.38349e+07 -0)
(26724.5 -2.38247e+07 -0)
(28457.4 -2.38137e+07 -0)
(30293.9 -2.38021e+07 -0)
(32240.2 -2.37897e+07 -0)
(34302.7 -2.37765e+07 -0)
(36488 -2.37625e+07 -0)
(38803.2 -2.37476e+07 -0)
(41255.7 -2.37317e+07 -0)
(43853.1 -2.37148e+07 -0)
(46603.2 -2.36969e+07 -0)
(49514.5 -2.36778e+07 -0)
(52595.5 -2.36576e+07 -0)
(55855.2 -2.36361e+07 -0)
(59302.6 -2.36132e+07 -0)
(62947.5 -2.3589e+07 -0)
(66799.5 -2.35632e+07 -0)
(70868.7 -2.35359e+07 -0)
(75165.4 -2.3507e+07 -0)
(79700.2 -2.34762e+07 -0)
(84483.8 -2.34436e+07 -0)
(89527 -2.34091e+07 -0)
(94840.8 -2.33725e+07 -0)
(100436 -2.33337e+07 -0)
(106324 -2.32927e+07 -0)
(112516 -2.32492e+07 -0)
(119021 -2.32032e+07 -0)
(125852 -2.31546e+07 -0)
(133017 -2.31032e+07 -0)
(140527 -2.30488e+07 -0)
(148390 -2.29914e+07 -0)
(156615 -2.29307e+07 -0)
(165210 -2.28668e+07 -0)
(174180 -2.27993e+07 -0)
(183532 -2.27281e+07 -0)
(193269 -2.26531e+07 -0)
(203393 -2.25742e+07 -0)
(213906 -2.24911e+07 -0)
(224806 -2.24037e+07 -0)
(236090 -2.23119e+07 -0)
(247752 -2.22156e+07 -0)
(259784 -2.21144e+07 -0)
(272176 -2.20084e+07 -0)
(284913 -2.18973e+07 -0)
(297979 -2.1781e+07 -0)
(311355 -2.16595e+07 -0)
(325017 -2.15325e+07 -0)
(338939 -2.13999e+07 -0)
(353091 -2.12617e+07 -0)
(367440 -2.11178e+07 -0)
(381948 -2.09681e+07 -0)
(396577 -2.08125e+07 -0)
(411283 -2.06509e+07 -0)
(426020 -2.04835e+07 -0)
(440739 -2.03101e+07 -0)
(455388 -2.01308e+07 -0)
(469915 -1.99456e+07 -0)
(484264 -1.97545e+07 -0)
(498378 -1.95577e+07 -0)
(512202 -1.93553e+07 -0)
(525677 -1.91473e+07 -0)
(538747 -1.8934e+07 -0)
(551356 -1.87155e+07 -0)
(563450 -1.8492e+07 -0)
(574977 -1.82637e+07 -0)
(585885 -1.80309e+07 -0)
(596126 -1.77938e+07 -0)
(276.952 -2.39604e+07 -0)
(831.928 -2.39602e+07 -0)
(1390.13 -2.39599e+07 -0)
(1953.73 -2.39595e+07 -0)
(2524.9 -2.39588e+07 -0)
(3105.87 -2.3958e+07 -0)
(3698.87 -2.39571e+07 -0)
(4306.21 -2.3956e+07 -0)
(4930.23 -2.39547e+07 -0)
(5573.33 -2.39532e+07 -0)
(6237.99 -2.39515e+07 -0)
(6926.76 -2.39497e+07 -0)
(7642.3 -2.39476e+07 -0)
(8387.32 -2.39454e+07 -0)
(9164.68 -2.39429e+07 -0)
(9977.34 -2.39402e+07 -0)
(10828.4 -2.39373e+07 -0)
(11721 -2.39342e+07 -0)
(12658.7 -2.39307e+07 -0)
(13644.8 -2.3927e+07 -0)
(14683.1 -2.39231e+07 -0)
(15777.5 -2.39188e+07 -0)
(16932 -2.39142e+07 -0)
(18151 -2.39093e+07 -0)
(19438.8 -2.3904e+07 -0)
(20800.3 -2.38983e+07 -0)
(22240.4 -2.38923e+07 -0)
(23764.3 -2.38858e+07 -0)
(25377.5 -2.38789e+07 -0)
(27085.8 -2.38716e+07 -0)
(28895.2 -2.38637e+07 -0)
(30812.2 -2.38553e+07 -0)
(32843.4 -2.38464e+07 -0)
(34996 -2.38368e+07 -0)
(37277.4 -2.38267e+07 -0)
(39695.2 -2.38159e+07 -0)
(42257.8 -2.38044e+07 -0)
(44973.6 -2.37921e+07 -0)
(47851.6 -2.37791e+07 -0)
(50901.2 -2.37652e+07 -0)
(54132.3 -2.37504e+07 -0)
(57555.1 -2.37347e+07 -0)
(61180.2 -2.3718e+07 -0)
(65018.9 -2.37003e+07 -0)
(69082.7 -2.36814e+07 -0)
(73383.6 -2.36614e+07 -0)
(77934.2 -2.36401e+07 -0)
(82747.3 -2.36175e+07 -0)
(87836.4 -2.35935e+07 -0)
(93215 -2.3568e+07 -0)
(98897.5 -2.35409e+07 -0)
(104898 -2.35122e+07 -0)
(111232 -2.34818e+07 -0)
(117914 -2.34495e+07 -0)
(124959 -2.34153e+07 -0)
(132383 -2.3379e+07 -0)
(140201 -2.33406e+07 -0)
(148429 -2.32999e+07 -0)
(157082 -2.32568e+07 -0)
(166175 -2.32112e+07 -0)
(175724 -2.3163e+07 -0)
(185742 -2.3112e+07 -0)
(196242 -2.3058e+07 -0)
(207239 -2.3001e+07 -0)
(218744 -2.29408e+07 -0)
(230767 -2.28773e+07 -0)
(243319 -2.28102e+07 -0)
(256406 -2.27395e+07 -0)
(270034 -2.2665e+07 -0)
(284207 -2.25866e+07 -0)
(298927 -2.2504e+07 -0)
(314192 -2.24171e+07 -0)
(329997 -2.23257e+07 -0)
(346335 -2.22298e+07 -0)
(363195 -2.21291e+07 -0)
(380563 -2.20235e+07 -0)
(398418 -2.19128e+07 -0)
(416739 -2.17969e+07 -0)
(435497 -2.16757e+07 -0)
(454661 -2.1549e+07 -0)
(474194 -2.14168e+07 -0)
(494053 -2.12789e+07 -0)
(514192 -2.11351e+07 -0)
(534560 -2.09856e+07 -0)
(555101 -2.08301e+07 -0)
(575754 -2.06686e+07 -0)
(596454 -2.05012e+07 -0)
(617132 -2.03278e+07 -0)
(637716 -2.01483e+07 -0)
(658130 -1.99629e+07 -0)
(678297 -1.97716e+07 -0)
(698137 -1.95745e+07 -0)
(717570 -1.93717e+07 -0)
(736515 -1.91633e+07 -0)
(754891 -1.89495e+07 -0)
(772619 -1.87304e+07 -0)
(789624 -1.85062e+07 -0)
(805830 -1.82772e+07 -0)
(821169 -1.80436e+07 -0)
(835569 -1.78057e+07 -0)
(354.235 -2.3961e+07 -0)
(1064.08 -2.39609e+07 -0)
(1778.05 -2.39606e+07 -0)
(2498.92 -2.39601e+07 -0)
(3229.49 -2.39595e+07 -0)
(3972.58 -2.39587e+07 -0)
(4731.08 -2.39578e+07 -0)
(5507.91 -2.39567e+07 -0)
(6306.09 -2.39554e+07 -0)
(7128.68 -2.39539e+07 -0)
(7978.86 -2.39523e+07 -0)
(8859.89 -2.39505e+07 -0)
(9775.16 -2.39485e+07 -0)
(10728.2 -2.39463e+07 -0)
(11722.5 -2.39438e+07 -0)
(12762.1 -2.39412e+07 -0)
(13850.8 -2.39383e+07 -0)
(14992.7 -2.39352e+07 -0)
(16192.1 -2.39318e+07 -0)
(17453.7 -2.39282e+07 -0)
(18782 -2.39243e+07 -0)
(20182.1 -2.39201e+07 -0)
(21659.2 -2.39156e+07 -0)
(23218.7 -2.39107e+07 -0)
(24866.4 -2.39055e+07 -0)
(26608.3 -2.38999e+07 -0)
(28450.9 -2.3894e+07 -0)
(30400.7 -2.38876e+07 -0)
(32464.9 -2.38808e+07 -0)
(34650.9 -2.38736e+07 -0)
(36966.3 -2.38658e+07 -0)
(39419.5 -2.38576e+07 -0)
(42019 -2.38488e+07 -0)
(44773.9 -2.38394e+07 -0)
(47693.7 -2.38294e+07 -0)
(50788.3 -2.38187e+07 -0)
(54068.3 -2.38074e+07 -0)
(57544.7 -2.37953e+07 -0)
(61228.9 -2.37824e+07 -0)
(65133.1 -2.37688e+07 -0)
(69269.7 -2.37542e+07 -0)
(73652.1 -2.37387e+07 -0)
(78293.9 -2.37223e+07 -0)
(83209.4 -2.37048e+07 -0)
(88413.6 -2.36862e+07 -0)
(93922 -2.36664e+07 -0)
(99750.6 -2.36454e+07 -0)
(105916 -2.36231e+07 -0)
(112436 -2.35994e+07 -0)
(119327 -2.35743e+07 -0)
(126608 -2.35476e+07 -0)
(134298 -2.35193e+07 -0)
(142416 -2.34892e+07 -0)
(150980 -2.34574e+07 -0)
(160012 -2.34236e+07 -0)
(169531 -2.33877e+07 -0)
(179556 -2.33498e+07 -0)
(190109 -2.33096e+07 -0)
(201208 -2.3267e+07 -0)
(212874 -2.32219e+07 -0)
(225126 -2.31742e+07 -0)
(237983 -2.31237e+07 -0)
(251462 -2.30703e+07 -0)
(265581 -2.30139e+07 -0)
(280355 -2.29543e+07 -0)
(295797 -2.28913e+07 -0)
(311922 -2.28249e+07 -0)
(328738 -2.27548e+07 -0)
(346254 -2.26809e+07 -0)
(364475 -2.26031e+07 -0)
(383403 -2.25211e+07 -0)
(403037 -2.24348e+07 -0)
(423371 -2.23441e+07 -0)
(444396 -2.22488e+07 -0)
(466099 -2.21487e+07 -0)
(488461 -2.20436e+07 -0)
(511458 -2.19335e+07 -0)
(535061 -2.18181e+07 -0)
(559234 -2.16974e+07 -0)
(583937 -2.15712e+07 -0)
(609121 -2.14394e+07 -0)
(634734 -2.13018e+07 -0)
(660716 -2.11584e+07 -0)
(687000 -2.1009e+07 -0)
(713513 -2.08537e+07 -0)
(740178 -2.06924e+07 -0)
(766909 -2.05249e+07 -0)
(793619 -2.03514e+07 -0)
(820213 -2.01718e+07 -0)
(846592 -1.99862e+07 -0)
(872657 -1.97946e+07 -0)
(898304 -1.95971e+07 -0)
(923427 -1.93937e+07 -0)
(947921 -1.91847e+07 -0)
(971682 -1.89702e+07 -0)
(994607 -1.87503e+07 -0)
(1.01659e+06 -1.85253e+07 -0)
(1.03755e+06 -1.82953e+07 -0)
(1.05738e+06 -1.80607e+07 -0)
(1.07601e+06 -1.78217e+07 -0)
(430.143 -2.39618e+07 -0)
(1292.1 -2.39617e+07 -0)
(2159.07 -2.39614e+07 -0)
(3034.42 -2.39609e+07 -0)
(3921.54 -2.39603e+07 -0)
(4823.89 -2.39595e+07 -0)
(5744.95 -2.39586e+07 -0)
(6688.28 -2.39575e+07 -0)
(7657.53 -2.39563e+07 -0)
(8656.45 -2.39549e+07 -0)
(9688.87 -2.39533e+07 -0)
(10758.8 -2.39515e+07 -0)
(11870.3 -2.39495e+07 -0)
(13027.6 -2.39473e+07 -0)
(14235.2 -2.3945e+07 -0)
(15497.7 -2.39424e+07 -0)
(16819.9 -2.39396e+07 -0)
(18206.7 -2.39365e+07 -0)
(19663.5 -2.39332e+07 -0)
(21195.7 -2.39296e+07 -0)
(22809.1 -2.39258e+07 -0)
(24509.7 -2.39217e+07 -0)
(26303.8 -2.39172e+07 -0)
(28198.1 -2.39125e+07 -0)
(30199.7 -2.39074e+07 -0)
(32315.7 -2.39019e+07 -0)
(34554.1 -2.38961e+07 -0)
(36922.9 -2.38898e+07 -0)
(39430.6 -2.38832e+07 -0)
(42086.4 -2.38761e+07 -0)
(44899.7 -2.38685e+07 -0)
(47880.5 -2.38604e+07 -0)
(51039.2 -2.38517e+07 -0)
(54386.8 -2.38425e+07 -0)
(57935.1 -2.38327e+07 -0)
(61696.1 -2.38222e+07 -0)
(65682.6 -2.38111e+07 -0)
(69908 -2.37993e+07 -0)
(74386.3 -2.37866e+07 -0)
(79132.3 -2.37732e+07 -0)
(84161.4 -2.37589e+07 -0)
(89489.6 -2.37437e+07 -0)
(95133.7 -2.37276e+07 -0)
(101111 -2.37104e+07 -0)
(107440 -2.36921e+07 -0)
(114140 -2.36727e+07 -0)
(121230 -2.36521e+07 -0)
(128731 -2.36301e+07 -0)
(136663 -2.36069e+07 -0)
(145049 -2.35821e+07 -0)
(153910 -2.35559e+07 -0)
(163270 -2.3528e+07 -0)
(173152 -2.34985e+07 -0)
(183580 -2.34671e+07 -0)
(194578 -2.34338e+07 -0)
(206172 -2.33986e+07 -0)
(218384 -2.33612e+07 -0)
(231241 -2.33216e+07 -0)
(244768 -2.32796e+07 -0)
(258987 -2.32351e+07 -0)
(273924 -2.31881e+07 -0)
(289602 -2.31383e+07 -0)
(306043 -2.30856e+07 -0)
(323267 -2.30299e+07 -0)
(341296 -2.2971e+07 -0)
(360146 -2.29088e+07 -0)
(379833 -2.28432e+07 -0)
(400371 -2.27739e+07 -0)
(421769 -2.27008e+07 -0)
(444036 -2.26237e+07 -0)
(467173 -2.25425e+07 -0)
(491181 -2.2457e+07 -0)
(516054 -2.23671e+07 -0)
(541780 -2.22725e+07 -0)
(568345 -2.21732e+07 -0)
(595725 -2.20689e+07 -0)
(623893 -2.19594e+07 -0)
(652812 -2.18447e+07 -0)
(682441 -2.17246e+07 -0)
(712730 -2.1599e+07 -0)
(743621 -2.14676e+07 -0)
(775048 -2.13305e+07 -0)
(806938 -2.11875e+07 -0)
(839209 -2.10385e+07 -0)
(871774 -2.08834e+07 -0)
(904534 -2.07221e+07 -0)
(937387 -2.05547e+07 -0)
(970222 -2.03812e+07 -0)
(1.00292e+06 -2.02014e+07 -0)
(1.03537e+06 -2.00155e+07 -0)
(1.06744e+06 -1.98235e+07 -0)
(1.09899e+06 -1.96254e+07 -0)
(1.12991e+06 -1.94214e+07 -0)
(1.16006e+06 -1.92117e+07 -0)
(1.18931e+06 -1.89963e+07 -0)
(1.21753e+06 -1.87754e+07 -0)
(1.2446e+06 -1.85493e+07 -0)
(1.27039e+06 -1.83181e+07 -0)
(1.29481e+06 -1.80822e+07 -0)
(1.31773e+06 -1.78418e+07 -0)
(504.381 -2.39628e+07 -0)
(1515.1 -2.39626e+07 -0)
(2531.7 -2.39623e+07 -0)
(3558.14 -2.39619e+07 -0)
(4598.39 -2.39613e+07 -0)
(5656.49 -2.39605e+07 -0)
(6736.54 -2.39596e+07 -0)
(7842.72 -2.39586e+07 -0)
(8979.31 -2.39574e+07 -0)
(10150.7 -2.3956e+07 -0)
(11361.4 -2.39544e+07 -0)
(12616.1 -2.39527e+07 -0)
(13919.6 -2.39507e+07 -0)
(15276.8 -2.39486e+07 -0)
(16693.1 -2.39463e+07 -0)
(18173.7 -2.39438e+07 -0)
(19724.3 -2.3941e+07 -0)
(21350.9 -2.3938e+07 -0)
(23059.5 -2.39348e+07 -0)
(24856.6 -2.39313e+07 -0)
(26749 -2.39276e+07 -0)
(28743.8 -2.39236e+07 -0)
(30848.3 -2.39192e+07 -0)
(33070.4 -2.39146e+07 -0)
(35418.4 -2.39096e+07 -0)
(37900.8 -2.39043e+07 -0)
(40526.8 -2.38986e+07 -0)
(43306 -2.38925e+07 -0)
(46248.3 -2.3886e+07 -0)
(49364.5 -2.3879e+07 -0)
(52665.6 -2.38716e+07 -0)
(56163.5 -2.38637e+07 -0)
(59870.3 -2.38553e+07 -0)
(63799.2 -2.38463e+07 -0)
(67963.8 -2.38367e+07 -0)
(72378.3 -2.38264e+07 -0)
(77057.9 -2.38156e+07 -0)
(82018.3 -2.3804e+07 -0)
(87276.1 -2.37916e+07 -0)
(92848.6 -2.37785e+07 -0)
(98754 -2.37645e+07 -0)
(105011 -2.37497e+07 -0)
(111640 -2.37339e+07 -0)
(118661 -2.37171e+07 -0)
(126097 -2.36992e+07 -0)
(133968 -2.36802e+07 -0)
(142299 -2.366e+07 -0)
(151114 -2.36385e+07 -0)
(160437 -2.36157e+07 -0)
(170295 -2.35915e+07 -0)
(180713 -2.35658e+07 -0)
(191720 -2.35385e+07 -0)
(203343 -2.35095e+07 -0)
(215610 -2.34788e+07 -0)
(228550 -2.34461e+07 -0)
(242193 -2.34115e+07 -0)
(256568 -2.33748e+07 -0)
(271705 -2.33359e+07 -0)
(287634 -2.32947e+07 -0)
(304383 -2.3251e+07 -0)
(321982 -2.32047e+07 -0)
(340458 -2.31558e+07 -0)
(359839 -2.31039e+07 -0)
(380150 -2.30491e+07 -0)
(401415 -2.29911e+07 -0)
(423657 -2.29298e+07 -0)
(446894 -2.28651e+07 -0)
(471143 -2.27967e+07 -0)
(496417 -2.27246e+07 -0)
(522725 -2.26485e+07 -0)
(550073 -2.25682e+07 -0)
(578461 -2.24837e+07 -0)
(607882 -2.23947e+07 -0)
(638326 -2.23011e+07 -0)
(669774 -2.22026e+07 -0)
(702201 -2.20992e+07 -0)
(735575 -2.19906e+07 -0)
(769854 -2.18767e+07 -0)
(804989 -2.17574e+07 -0)
(840922 -2.16324e+07 -0)
(877584 -2.15017e+07 -0)
(914898 -2.13652e+07 -0)
(952778 -2.12226e+07 -0)
(991126 -2.1074e+07 -0)
(1.02984e+06 -2.09191e+07 -0)
(1.0688e+06 -2.07581e+07 -0)
(1.10788e+06 -2.05907e+07 -0)
(1.14696e+06 -2.04171e+07 -0)
(1.18589e+06 -2.02371e+07 -0)
(1.22453e+06 -2.00509e+07 -0)
(1.26272e+06 -1.98584e+07 -0)
(1.30032e+06 -1.96597e+07 -0)
(1.33717e+06 -1.94549e+07 -0)
(1.3731e+06 -1.92443e+07 -0)
(1.40797e+06 -1.90278e+07 -0)
(1.44161e+06 -1.88057e+07 -0)
(1.47388e+06 -1.85783e+07 -0)
(1.50463e+06 -1.83457e+07 -0)
(1.53372e+06 -1.81081e+07 -0)
(1.56104e+06 -1.7866e+07 -0)
(576.66 -2.39638e+07 -0)
(1732.22 -2.39637e+07 -0)
(2894.51 -2.39634e+07 -0)
(4068.04 -2.3963e+07 -0)
(5257.38 -2.39624e+07 -0)
(6467.13 -2.39617e+07 -0)
(7702 -2.39608e+07 -0)
(8966.75 -2.39598e+07 -0)
(10266.3 -2.39586e+07 -0)
(11605.6 -2.39572e+07 -0)
(12990 -2.39557e+07 -0)
(14424.6 -2.3954e+07 -0)
(15915 -2.39522e+07 -0)
(17467 -2.39501e+07 -0)
(19086.5 -2.39479e+07 -0)
(20779.6 -2.39454e+07 -0)
(22552.9 -2.39427e+07 -0)
(24413 -2.39398e+07 -0)
(26367 -2.39367e+07 -0)
(28422.3 -2.39333e+07 -0)
(30586.6 -2.39297e+07 -0)
(32868 -2.39258e+07 -0)
(35275.1 -2.39215e+07 -0)
(37816.9 -2.3917e+07 -0)
(40502.6 -2.39122e+07 -0)
(43342.4 -2.3907e+07 -0)
(46346.4 -2.39015e+07 -0)
(49525.9 -2.38956e+07 -0)
(52892.2 -2.38892e+07 -0)
(56457.6 -2.38825e+07 -0)
(60234.9 -2.38753e+07 -0)
(64237.4 -2.38676e+07 -0)
(68479.5 -2.38593e+07 -0)
(72975.9 -2.38506e+07 -0)
(77742.5 -2.38413e+07 -0)
(82795.5 -2.38313e+07 -0)
(88152.4 -2.38207e+07 -0)
(93831.2 -2.38095e+07 -0)
(99851.1 -2.37974e+07 -0)
(106232 -2.37847e+07 -0)
(112995 -2.37711e+07 -0)
(120161 -2.37566e+07 -0)
(127754 -2.37412e+07 -0)
(135798 -2.37248e+07 -0)
(144317 -2.37074e+07 -0)
(153337 -2.36889e+07 -0)
(162884 -2.36692e+07 -0)
(172988 -2.36483e+07 -0)
(183677 -2.3626e+07 -0)
(194980 -2.36024e+07 -0)
(206929 -2.35773e+07 -0)
(219554 -2.35506e+07 -0)
(232889 -2.35223e+07 -0)
(246966 -2.34923e+07 -0)
(261819 -2.34604e+07 -0)
(277482 -2.34266e+07 -0)
(293990 -2.33907e+07 -0)
(311377 -2.33526e+07 -0)
(329679 -2.33122e+07 -0)
(348929 -2.32695e+07 -0)
(369161 -2.32241e+07 -0)
(390410 -2.31761e+07 -0)
(412705 -2.31253e+07 -0)
(436079 -2.30715e+07 -0)
(460559 -2.30145e+07 -0)
(486172 -2.29543e+07 -0)
(512942 -2.28906e+07 -0)
(540889 -2.28234e+07 -0)
(570030 -2.27523e+07 -0)
(600376 -2.26774e+07 -0)
(631934 -2.25983e+07 -0)
(664707 -2.25149e+07 -0)
(698688 -2.2427e+07 -0)
(733867 -2.23344e+07 -0)
(770224 -2.22371e+07 -0)
(807731 -2.21347e+07 -0)
(846352 -2.20271e+07 -0)
(886040 -2.19142e+07 -0)
(926740 -2.17958e+07 -0)
(968383 -2.16716e+07 -0)
(1.01089e+06 -2.15417e+07 -0)
(1.05418e+06 -2.14058e+07 -0)
(1.09815e+06 -2.12638e+07 -0)
(1.14268e+06 -2.11156e+07 -0)
(1.18765e+06 -2.09611e+07 -0)
(1.23294e+06 -2.08003e+07 -0)
(1.27839e+06 -2.0633e+07 -0)
(1.32384e+06 -2.04593e+07 -0)
(1.36915e+06 -2.02791e+07 -0)
(1.41413e+06 -2.00925e+07 -0)
(1.45861e+06 -1.98994e+07 -0)
(1.5024e+06 -1.97e+07 -0)
(1.54533e+06 -1.94944e+07 -0)
(1.58721e+06 -1.92826e+07 -0)
(1.62785e+06 -1.90649e+07 -0)
(1.66706e+06 -1.88415e+07 -0)
(1.70467e+06 -1.86124e+07 -0)
(1.74051e+06 -1.83781e+07 -0)
(1.77442e+06 -1.81387e+07 -0)
(1.80624e+06 -1.78946e+07 -0)
(646.698 -2.39651e+07 -0)
(1942.61 -2.39649e+07 -0)
(3246.06 -2.39646e+07 -0)
(4562.14 -2.39642e+07 -0)
(5895.95 -2.39637e+07 -0)
(7252.67 -2.3963e+07 -0)
(8637.56 -2.39621e+07 -0)
(10056 -2.39611e+07 -0)
(11513.5 -2.396e+07 -0)
(13015.6 -2.39587e+07 -0)
(14568.2 -2.39572e+07 -0)
(16177.3 -2.39556e+07 -0)
(17849 -2.39538e+07 -0)
(19589.7 -2.39518e+07 -0)
(21406.3 -2.39496e+07 -0)
(23305.4 -2.39472e+07 -0)
(25294.6 -2.39446e+07 -0)
(27381.2 -2.39418e+07 -0)
(29573.2 -2.39388e+07 -0)
(31878.9 -2.39355e+07 -0)
(34307 -2.3932e+07 -0)
(36866.6 -2.39282e+07 -0)
(39567.4 -2.39242e+07 -0)
(42419.3 -2.39198e+07 -0)
(45432.9 -2.39151e+07 -0)
(48619.5 -2.39101e+07 -0)
(51990.7 -2.39048e+07 -0)
(55558.9 -2.3899e+07 -0)
(59337.1 -2.38929e+07 -0)
(63338.9 -2.38864e+07 -0)
(67578.8 -2.38794e+07 -0)
(72071.9 -2.38719e+07 -0)
(76834.3 -2.3864e+07 -0)
(81882.6 -2.38555e+07 -0)
(87234.6 -2.38465e+07 -0)
(92908.9 -2.38368e+07 -0)
(98924.9 -2.38266e+07 -0)
(105303 -2.38157e+07 -0)
(112065 -2.3804e+07 -0)
(119233 -2.37916e+07 -0)
(126832 -2.37785e+07 -0)
(134885 -2.37644e+07 -0)
(143418 -2.37495e+07 -0)
(152459 -2.37336e+07 -0)
(162035 -2.37167e+07 -0)
(172177 -2.36987e+07 -0)
(182914 -2.36796e+07 -0)
(194278 -2.36593e+07 -0)
(206302 -2.36377e+07 -0)
(219020 -2.36147e+07 -0)
(232467 -2.35903e+07 -0)
(246679 -2.35644e+07 -0)
(261692 -2.35369e+07 -0)
(277546 -2.35077e+07 -0)
(294277 -2.34766e+07 -0)
(311926 -2.34437e+07 -0)
(330532 -2.34087e+07 -0)
(350135 -2.33716e+07 -0)
(370776 -2.33322e+07 -0)
(392493 -2.32905e+07 -0)
(415326 -2.32462e+07 -0)
(439313 -2.31993e+07 -0)
(464493 -2.31496e+07 -0)
(490901 -2.30969e+07 -0)
(518570 -2.30412e+07 -0)
(547531 -2.29822e+07 -0)
(577814 -2.29198e+07 -0)
(609443 -2.28538e+07 -0)
(642437 -2.27841e+07 -0)
(676813 -2.27104e+07 -0)
(712581 -2.26326e+07 -0)
(749743 -2.25505e+07 -0)
(788297 -2.24639e+07 -0)
(828231 -2.23726e+07 -0)
(869524 -2.22765e+07 -0)
(912148 -2.21754e+07 -0)
(956061 -2.2069e+07 -0)
(1.00121e+06 -2.19572e+07 -0)
(1.04755e+06 -2.18398e+07 -0)
(1.09498e+06 -2.17167e+07 -0)
(1.14343e+06 -2.15876e+07 -0)
(1.19279e+06 -2.14525e+07 -0)
(1.24295e+06 -2.13112e+07 -0)
(1.29379e+06 -2.11636e+07 -0)
(1.34516e+06 -2.10095e+07 -0)
(1.39691e+06 -2.0849e+07 -0)
(1.44888e+06 -2.06818e+07 -0)
(1.50088e+06 -2.0508e+07 -0)
(1.55273e+06 -2.03276e+07 -0)
(1.60423e+06 -2.01405e+07 -0)
(1.65517e+06 -1.99468e+07 -0)
(1.70535e+06 -1.97466e+07 -0)
(1.75455e+06 -1.95399e+07 -0)
(1.80256e+06 -1.9327e+07 -0)
(1.84915e+06 -1.91078e+07 -0)
(1.89411e+06 -1.88827e+07 -0)
(1.93724e+06 -1.86519e+07 -0)
(1.97833e+06 -1.84156e+07 -0)
(2.0172e+06 -1.8174e+07 -0)
(2.05367e+06 -1.79276e+07 -0)
(714.221 -2.39664e+07 -0)
(2145.44 -2.39663e+07 -0)
(3585 -2.3966e+07 -0)
(5038.51 -2.39656e+07 -0)
(6511.61 -2.39651e+07 -0)
(8010.03 -2.39644e+07 -0)
(9539.59 -2.39636e+07 -0)
(11106.2 -2.39627e+07 -0)
(12716 -2.39615e+07 -0)
(14375.1 -2.39603e+07 -0)
(16090 -2.39589e+07 -0)
(17867.3 -2.39573e+07 -0)
(19713.9 -2.39556e+07 -0)
(21636.7 -2.39537e+07 -0)
(23643.3 -2.39516e+07 -0)
(25741.3 -2.39493e+07 -0)
(27938.7 -2.39468e+07 -0)
(30243.9 -2.39441e+07 -0)
(32665.7 -2.39412e+07 -0)
(35213.1 -2.3938e+07 -0)
(37895.9 -2.39347e+07 -0)
(40724.2 -2.3931e+07 -0)
(43708.4 -2.39271e+07 -0)
(46859.9 -2.39229e+07 -0)
(50190.3 -2.39184e+07 -0)
(53712 -2.39136e+07 -0)
(57438 -2.39084e+07 -0)
(61381.9 -2.39029e+07 -0)
(65558.2 -2.3897e+07 -0)
(69982.1 -2.38907e+07 -0)
(74669.4 -2.3884e+07 -0)
(79637.2 -2.38768e+07 -0)
(84903 -2.38691e+07 -0)
(90485.6 -2.3861e+07 -0)
(96404.5 -2.38523e+07 -0)
(102680 -2.3843e+07 -0)
(109335 -2.38331e+07 -0)
(116391 -2.38226e+07 -0)
(123873 -2.38114e+07 -0)
(131805 -2.37994e+07 -0)
(140214 -2.37867e+07 -0)
(149127 -2.37731e+07 -0)
(158574 -2.37587e+07 -0)
(168584 -2.37434e+07 -0)
(179189 -2.37271e+07 -0)
(190422 -2.37097e+07 -0)
(202316 -2.36913e+07 -0)
(214908 -2.36716e+07 -0)
(228233 -2.36507e+07 -0)
(242331 -2.36285e+07 -0)
(257240 -2.36049e+07 -0)
(273002 -2.35798e+07 -0)
(289656 -2.35532e+07 -0)
(307247 -2.35248e+07 -0)
(325818 -2.34947e+07 -0)
(345413 -2.34628e+07 -0)
(366078 -2.34288e+07 -0)
(387857 -2.33928e+07 -0)
(410796 -2.33546e+07 -0)
(434940 -2.3314e+07 -0)
(460335 -2.32709e+07 -0)
(487025 -2.32252e+07 -0)
(515053 -2.31768e+07 -0)
(544461 -2.31255e+07 -0)
(575287 -2.30711e+07 -0)
(607569 -2.30135e+07 -0)
(641340 -2.29525e+07 -0)
(676630 -2.2888e+07 -0)
(713463 -2.28197e+07 -0)
(751860 -2.27475e+07 -0)
(791833 -2.26712e+07 -0)
(833389 -2.25906e+07 -0)
(876526 -2.25055e+07 -0)
(921234 -2.24157e+07 -0)
(967494 -2.2321e+07 -0)
(1.01527e+06 -2.22213e+07 -0)
(1.06453e+06 -2.21162e+07 -0)
(1.11521e+06 -2.20058e+07 -0)
(1.16725e+06 -2.18896e+07 -0)
(1.22056e+06 -2.17676e+07 -0)
(1.27504e+06 -2.16396e+07 -0)
(1.3306e+06 -2.15055e+07 -0)
(1.38709e+06 -2.1365e+07 -0)
(1.44437e+06 -2.1218e+07 -0)
(1.50229e+06 -2.10644e+07 -0)
(1.56067e+06 -2.09042e+07 -0)
(1.61933e+06 -2.07372e+07 -0)
(1.67807e+06 -2.05634e+07 -0)
(1.73666e+06 -2.03827e+07 -0)
(1.79488e+06 -2.01951e+07 -0)
(1.85251e+06 -2.00008e+07 -0)
(1.90928e+06 -1.97996e+07 -0)
(1.96497e+06 -1.95918e+07 -0)
(2.01932e+06 -1.93774e+07 -0)
(2.07207e+06 -1.91567e+07 -0)
(2.123e+06 -1.89297e+07 -0)
(2.17184e+06 -1.86968e+07 -0)
(2.21838e+06 -1.84582e+07 -0)
(2.26239e+06 -1.82142e+07 -0)
(2.30366e+06 -1.79651e+07 -0)
(778.966 -2.39679e+07 -0)
(2339.93 -2.39678e+07 -0)
(3910 -2.39675e+07 -0)
(5495.28 -2.39672e+07 -0)
(7101.95 -2.39666e+07 -0)
(8736.26 -2.3966e+07 -0)
(10404.5 -2.39652e+07 -0)
(12113.3 -2.39643e+07 -0)
(13869.1 -2.39633e+07 -0)
(15678.8 -2.39621e+07 -0)
(17549.4 -2.39607e+07 -0)
(19488.1 -2.39592e+07 -0)
(21502.4 -2.39575e+07 -0)
(23600 -2.39557e+07 -0)
(25789 -2.39537e+07 -0)
(28077.8 -2.39515e+07 -0)
(30475.1 -2.39491e+07 -0)
(32990.2 -2.39466e+07 -0)
(35632.5 -2.39438e+07 -0)
(38412 -2.39408e+07 -0)
(41339.4 -2.39375e+07 -0)
(44425.6 -2.3934e+07 -0)
(47682.3 -2.39303e+07 -0)
(51121.6 -2.39263e+07 -0)
(54756.4 -2.3922e+07 -0)
(58600.3 -2.39174e+07 -0)
(62667.3 -2.39124e+07 -0)
(66972.6 -2.39071e+07 -0)
(71531.8 -2.39015e+07 -0)
(76361.7 -2.38955e+07 -0)
(81479.7 -2.3889e+07 -0)
(86904.4 -2.38821e+07 -0)
(92655 -2.38748e+07 -0)
(98752.2 -2.3867e+07 -0)
(105217 -2.38586e+07 -0)
(112073 -2.38497e+07 -0)
(119344 -2.38403e+07 -0)
(127054 -2.38302e+07 -0)
(135230 -2.38194e+07 -0)
(143900 -2.3808e+07 -0)
(153092 -2.37957e+07 -0)
(162837 -2.37827e+07 -0)
(173167 -2.37689e+07 -0)
(184115 -2.37542e+07 -0)
(195715 -2.37385e+07 -0)
(208005 -2.37218e+07 -0)
(221021 -2.37041e+07 -0)
(234803 -2.36852e+07 -0)
(249393 -2.36651e+07 -0)
(264831 -2.36437e+07 -0)
(281162 -2.3621e+07 -0)
(298431 -2.35968e+07 -0)
(316684 -2.35711e+07 -0)
(335969 -2.35438e+07 -0)
(356335 -2.35147e+07 -0)
(377831 -2.34839e+07 -0)
(400508 -2.34511e+07 -0)
(424417 -2.34162e+07 -0)
(449610 -2.33792e+07 -0)
(476137 -2.33399e+07 -0)
(504050 -2.32982e+07 -0)
(533399 -2.3254e+07 -0)
(564234 -2.3207e+07 -0)
(596602 -2.31571e+07 -0)
(630549 -2.31043e+07 -0)
(666118 -2.30482e+07 -0)
(703348 -2.29888e+07 -0)
(742274 -2.29259e+07 -0)
(782926 -2.28593e+07 -0)
(825329 -2.27887e+07 -0)
(869501 -2.27141e+07 -0)
(915452 -2.26352e+07 -0)
(963184 -2.25518e+07 -0)
(1.01269e+06 -2.24636e+07 -0)
(1.06394e+06 -2.23706e+07 -0)
(1.11692e+06 -2.22725e+07 -0)
(1.17158e+06 -2.2169e+07 -0)
(1.22785e+06 -2.206e+07 -0)
(1.28568e+06 -2.19452e+07 -0)
(1.34496e+06 -2.18246e+07 -0)
(1.4056e+06 -2.16978e+07 -0)
(1.46746e+06 -2.15647e+07 -0)
(1.53042e+06 -2.14251e+07 -0)
(1.59431e+06 -2.1279e+07 -0)
(1.65896e+06 -2.1126e+07 -0)
(1.72416e+06 -2.09662e+07 -0)
(1.78972e+06 -2.07994e+07 -0)
(1.8554e+06 -2.06256e+07 -0)
(1.92096e+06 -2.04446e+07 -0)
(1.98614e+06 -2.02566e+07 -0)
(2.05068e+06 -2.00615e+07 -0)
(2.11431e+06 -1.98593e+07 -0)
(2.17673e+06 -1.96502e+07 -0)
(2.23767e+06 -1.94343e+07 -0)
(2.29684e+06 -1.92117e+07 -0)
(2.35396e+06 -1.89827e+07 -0)
(2.40875e+06 -1.87475e+07 -0)
(2.46095e+06 -1.85063e+07 -0)
(2.5103e+06 -1.82595e+07 -0)
(2.55658e+06 -1.80074e+07 -0)
(840.679 -2.39695e+07 -0)
(2525.31 -2.39694e+07 -0)
(4219.77 -2.39692e+07 -0)
(5930.67 -2.39688e+07 -0)
(7664.67 -2.39683e+07 -0)
(9428.51 -2.39677e+07 -0)
(11229 -2.3967e+07 -0)
(13073.3 -2.39661e+07 -0)
(14968.4 -2.39651e+07 -0)
(16921.7 -2.3964e+07 -0)
(18940.7 -2.39627e+07 -0)
(21033.3 -2.39613e+07 -0)
(23207.6 -2.39597e+07 -0)
(25471.9 -2.39579e+07 -0)
(27834.9 -2.3956e+07 -0)
(30305.8 -2.3954e+07 -0)
(32893.9 -2.39517e+07 -0)
(35609.1 -2.39492e+07 -0)
(38461.9 -2.39466e+07 -0)
(41463.1 -2.39437e+07 -0)
(44624 -2.39407e+07 -0)
(47956.6 -2.39373e+07 -0)
(51473.5 -2.39338e+07 -0)
(55187.8 -2.393e+07 -0)
(59113.6 -2.39259e+07 -0)
(63265.3 -2.39215e+07 -0)
(67658.4 -2.39168e+07 -0)
(72309.2 -2.39117e+07 -0)
(77234.8 -2.39064e+07 -0)
(82453.2 -2.39006e+07 -0)
(87983.4 -2.38945e+07 -0)
(93845.5 -2.3888e+07 -0)
(100061 -2.3881e+07 -0)