/*--------------------------------*- C++ -*----------------------------------*\
| =========                 |                                                 |
| \\      /  F ield         | OpenFOAM: The Open Source CFD Toolbox           |
|  \\    /   O peration     | Version:  2406                                  |
|   \\  /    A nd           | Website:  www.openfoam.com                      |
|    \\/     M anipulation  |                                                 |
\*---------------------------------------------------------------------------*/
FoamFile
{
    version     2.0;
    format      ascii;
    arch        "LSB;label=32;scalar=64";
    class       volVectorField;
    location    "1e-05";
    object      EExtAmp;
}
// * * * * * * * * * * * * * * * * * * * * * * * * * * * * * * * * * * * * * //

dimensions      [1 1 -3 0 0 -1 0];

internalField   nonuniform List<vector> 
61540
(
(9913.544743 50815.61898 -0)
(41165.34658 75877.28104 -0)
(104152.2287 113152.8471 -0)
(206716.0905 144462.1099 -0)
(342082.4891 163368.0673 -0)
(504687.7605 183881.8358 -0)
(696985.8803 219939.4045 -0)
(920729.5983 278732.47 -0)
(1170558.458 363262.1114 -0)
(1433559.115 473708.3331 -0)
(1726062.485 617123.675 -0)
(2145000.831 850915.4341 -0)
(2947901.623 1343680.208 -0)
(5540627.599 2597659.376 -0)
(10033.66382 50656.757 -0)
(41559.49181 75350.86901 -0)
(104775.3868 111570.7104 -0)
(207373.331 140893.1513 -0)
(342877.4442 156621.3415 -0)
(506488.909 171500.9653 -0)
(701582.8309 197241.4535 -0)
(931191.2832 238200.021 -0)
(1191989.48 294366.1098 -0)
(1473585.751 363512.5115 -0)
(1797851.273 447271.1693 -0)
(2278644.641 570903.0154 -0)
(3160858.698 781133.0202 -0)
(4879384.35 1004577.472 -0)
(10152.00445 50496.22499 -0)
(41943.99138 74821.13029 -0)
(105367.8286 109986.626 -0)
(207951.0357 137328.3638 -0)
(343459.5638 149863.5234 -0)
(507689.5964 159024.299 -0)
(704538.1782 174198.4557 -0)
(937466.4641 196667.5537 -0)
(1203543.886 222834.0036 -0)
(1492283.762 247155.2196 -0)
(1824986.487 265066.5345 -0)
(2311931.757 269239.6947 -0)
(3164738.851 215284.3933 -0)
(4647772.352 -30350.03179 -0)
(10268.55827 50333.82783 -0)
(42318.84677 74287.83284 -0)
(105929.6385 108400.4826 -0)
(208449.0605 133768.648 -0)
(343826.7111 143102.1634 -0)
(508279.8893 146490.9899 -0)
(705815.2697 150974.561 -0)
(939432.5525 154742.1669 -0)
(1204889.267 150707.0955 -0)
(1489124.409 130666.2728 -0)
(1807873.205 85787.20206 -0)
(2253753.57 -17892.62802 -0)
(3011063.835 -302640.0313 -0)
(4786917.17 -1141864.673 -0)
(-9637162.281 4525704.858 -0)
(-5439165.509 2570844.268 -0)
(-4163485.125 1827311.721 -0)
(-3524887.476 1527336.384 -0)
(-3115975.76 1426278.726 -0)
(-2808022.911 1430974.921 -0)
(-2538458.046 1496868.582 -0)
(-2269659.706 1592211.669 -0)
(-1981842.249 1683948.325 -0)
(-8305393.956 1721720.464 -0)
(-5735768.986 1568041.651 -0)
(-4356183.066 1336526.868 -0)
(-3601340.958 1234312.335 -0)
(-3127106.123 1222534.782 -0)
(-2782096.379 1267423.123 -0)
(-2492987.962 1346163.671 -0)
(-2220052.601 1438197.607 -0)
(-1943807.611 1520678.716 -0)
(-7786671.091 55887.2844 -0)
(-5655836.906 589867.2129 -0)
(-4351207.865 804829.4469 -0)
(-3589008.025 912672.1011 -0)
(-3097350.942 1000863.478 -0)
(-2738481.661 1093162.509 -0)
(-2442397.398 1191250.989 -0)
(-2171494.993 1287203.333 -0)
(-1907366.067 1367712.363 -0)
(-7942157.052 -1743534.478 -0)
(-5314489.02 -287368.6639 -0)
(-4174605.317 307026.3267 -0)
(-3491071.815 597248.5575 -0)
(-3025580.269 777892.7692 -0)
(-2675003.404 917073.364 -0)
(-2383839.998 1037011.401 -0)
(-2120793.078 1141092.681 -0)
(-1869941.367 1224147.89 -0)
(-1672711.967 1738020.504 -0)
(-1364702.517 1729572.554 -0)
(-1088404.891 1665201.732 -0)
(-858043.3028 1565778.678 -0)
(-674669.2871 1450833.455 -0)
(-532338.6968 1333634.972 -0)
(-423088.0794 1221655.47 -0)
(-339421.3451 1118409.357 -0)
(-275152.2237 1025083.966 -0)
(-225477.6404 941629.1524 -0)
(-186775.9916 867395.5401 -0)
(-156351.48 801489.6119 -0)
(-132205.1169 742966.3078 -0)
(-112852.0878 690924.3066 -0)
(-97185.66829 644544.2189 -0)
(-84378.52031 603098.5563 -0)
(-73807.99972 565952.0125 -0)
(-64999.72942 532558.5866 -0)
(-57589.66956 502452.8089 -0)
(-51298.91689 475235.6157 -0)
(-45912.00653 450562.9625 -0)
(-41257.94204 428141.3904 -0)
(-37199.10873 407724.1475 -0)
(-33626.33546 389101.5885 -0)
(-30452.55548 372091.3323 -0)
(-27604.19534 356536.1382 -0)
(-25016.10844 342305.4588 -0)
(-22631.19833 329291.8966 -0)
(-20399.2063 317403.7101 -0)
(-18271.55996 306561.4498 -0)
(-16195.88314 296700.5218 -0)
(-14113.8117 287772.6649 -0)
(-11959.57125 279741.3288 -0)
(-9654.596766 272575.0188 -0)
(-7098.212722 266244.0477 -0)
(-4157.922308 260717.6768 -0)
(-660.5712212 255952.9921 -0)
(3616.883448 251869.9061 -0)
(8954.242594 248310.1886 -0)
(15678.10225 244975.5472 -0)
(24102.72898 241337.8944 -0)
(34369.31447 236537.5806 -0)
(46140.64292 229369.2927 -0)
(58236.70188 218591.3121 -0)
(-1659322.672 1571166.993 -0)
(-1379930.584 1573355.468 -0)
(-1126500.509 1530074.21 -0)
(-909888.1922 1455069.211 -0)
(-732301.0275 1363009.566 -0)
(-590358.891 1265110.155 -0)
(-478405.3401 1168521.762 -0)
(-390545.0245 1077202.38 -0)
(-321559.7303 992997.742 -0)
(-267181.8632 916486.4061 -0)
(-224061.9585 847539.3133 -0)
(-189620.4139 785670.5204 -0)
(-161886.1556 730248.3376 -0)
(-139360.1013 680606.7947 -0)
(-120904.6526 636097.0927 -0)
(-105653.5013 596116.372 -0)
(-92940.62984 560126.361 -0)
(-82250.20706 527656.4749 -0)
(-73183.48396 498293.8762 -0)
(-65432.1169 471675.2487 -0)
(-58752.78362 447486.5853 -0)
(-52948.54267 425461.6307 -0)
(-47860.86726 405372.4677 -0)
(-43364.88592 387019.1842 -0)
(-39359.41704 370227.1285 -0)
(-35756.23101 354849.0179 -0)
(-32477.10097 340762.6351 -0)
(-29455.64093 327862.9478 -0)
(-26634.55362 316056.9755 -0)
(-23957.53885 305265.4098 -0)
(-21363.72 295424.9549 -0)
(-18788.07688 286485.1916 -0)
(-16161.57179 278401.9183 -0)
(-13404.68132 271132.8263 -0)
(-10417.33434 264636.1181 -0)
(-7072.098777 258865.7638 -0)
(-3211.386197 253757.3122 -0)
(1354.865088 249203.586 -0)
(6848.345916 245021.1791 -0)
(13503.28651 240905.1855 -0)
(21503.78447 236372.148 -0)
(30850.5822 230715.2438 -0)
(41156.37047 223050.5967 -0)
(51464.50328 212589.108 -0)
(-1643427.747 1419098.472 -0)
(-1387303.547 1430892.839 -0)
(-1153462.333 1404540.54 -0)
(-949928.8571 1349518.224 -0)
(-779146.7678 1276954.921 -0)
(-639306.9888 1196190.032 -0)
(-526437.3555 1113791.411 -0)
(-435959.5562 1033841.35 -0)
(-363546.0094 958587.0962 -0)
(-305479.7761 889057.8961 -0)
(-258724.7287 825539.3616 -0)
(-220861.5167 767898.5101 -0)
(-189990.166 715783.8494 -0)
(-164635.2724 668740.1176 -0)
(-143655.4009 626278.5575 -0)
(-126162.4227 587923.6348 -0)
(-111460.9431 553236.4673 -0)
(-99007.59607 521817.7676 -0)
(-88379.34398 493305.2525 -0)
(-79242.9269 467376.84 -0)
(-71329.49641 443754.4712 -0)
(-64420.70667 422198.6646 -0)
(-58342.45431 402497.6689 -0)
(-52956.27205 384463.1035 -0)
(-48146.14692 367932.9046 -0)
(-43809.66669 352771.5647 -0)
(-39858.44701 338863.1289 -0)
(-36219.31113 326103.828 -0)
(-32827.85223 314401.7141 -0)
(-29619.17126 303680.3107 -0)
(-26525.00314 293877.7904 -0)
(-23476.48182 284940.3492 -0)
(-20403.37212 276816.4429 -0)
(-17225.78688 269455.6346 -0)
(-13845.09714 262807.5494 -0)
(-10141.26556 256814.3309 -0)
(-5974.768964 251395.0884 -0)
(-1187.989755 246425.136 -0)
(4390.122285 241711.1521 -0)
(10921.13513 236960.2647 -0)
(18498.26111 231746.7774 -0)
(27042.46126 225501.2605 -0)
(36171.26813 217578.4445 -0)
(45118.47538 207472.3819 -0)
(-1624255.856 1279182.677 -0)
(-1387937.447 1299964.408 -0)
(-1171256.547 1287678.483 -0)
(-980060.2826 1249278.495 -0)
(-816631.5329 1193382.241 -0)
(-680098.8211 1127759.348 -0)
(-567697.1153 1058318.951 -0)
(-475907.3979 989063.9448 -0)
(-401190.63 922446.6374 -0)
(-340358.1171 859807.8052 -0)
(-290699.6208 801758.6831 -0)
(-249985.9456 748457.2152 -0)
(-216423.2715 699788.6457 -0)
(-188588.0119 655486.011 -0)
(-165353.7182 615214.238 -0)
(-145826.6509 578621.491 -0)
(-129298.8568 545361.2454 -0)
(-115212.3752 515100.9976 -0)
(-103125.9942 487532.0351 -0)
(-92685.04663 462378.7619 -0)
(-83600.78005 439399.1588 -0)
(-75639.78394 418377.2933 -0)
(-68615.4259 399118.0291 -0)
(-62375.50625 381449.1449 -0)
(-56789.76333 365224.0396 -0)
(-51744.60763 350317.4347 -0)
(-47144.35617 336617.6021 -0)
(-42909.41908 324023.5164 -0)
(-38967.48812 312447.6415 -0)
(-35245.6969 301817.4148 -0)
(-31670.69883 292070.925 -0)
(-28171.81798 283150.317 -0)
(-24678.16483 274998.8613 -0)
(-21109.57278 267561.273 -0)
(-17370.05139 260781.0082 -0)
(-13348.95233 254590.6635 -0)
(-8925.443348 248897.6259 -0)
(-3971.299876 243568.3448 -0)
(1642.666667 238410.9778 -0)
(8022.880433 233155.0645 -0)
(15201.33221 227434.4413 -0)
(23057.99913 220795.2901 -0)
(31240.48712 212766.2994 -0)
(39137.27499 203020.4654 -0)
(68702.3551 203753.7579 -0)
(75739.63283 186254.1572 -0)
(78762.61788 168306.3327 -0)
(78343.00305 151508.9213 -0)
(75472.7999 136649.068 -0)
(71097.45979 123915.9564 -0)
(65939.5796 113177.849 -0)
(60488.604 104175.9255 -0)
(55049.64613 96628.64191 -0)
(49799.34129 90277.258 -0)
(44831.20048 84900.66781 -0)
(40187.7097 80316.89388 -0)
(35881.18695 76379.50928 -0)
(31906.55619 72972.16444 -0)
(28249.01771 70002.54612 -0)
(24888.81414 67396.81126 -0)
(21804.311 65095.28288 -0)
(18973.87974 63049.53219 -0)
(16376.82727 61220.34998 -0)
(13993.68638 59575.98462 -0)
(11806.25842 58090.40428 -0)
(9797.68911 56741.78879 -0)
(7952.614097 55511.55273 -0)
(6257.237472 54383.92941 -0)
(4699.222066 53345.81687 -0)
(3267.415324 52386.50683 -0)
(1951.56092 51497.138 -0)
(742.1456212 50670.02487 -0)
(-369.5851155 49898.15843 -0)
(-1391.535223 49175.06644 -0)
(-2330.723108 48494.97618 -0)
(-3193.377327 47853.0395 -0)
(-3985.132683 47245.38158 -0)
(-4711.228322 46668.89426 -0)
(-5376.61696 46120.88057 -0)
(-5985.959774 45598.74606 -0)
(-6543.552691 45099.88277 -0)
(-7053.261023 44621.76054 -0)
(-7518.519784 44162.11967 -0)
(-7942.407132 43719.12103 -0)
(-8327.753547 43291.36046 -0)
(-8677.234722 42877.74748 -0)
(-8993.413172 42477.32344 -0)
(-9278.726103 42089.11472 -0)
(-9535.444706 41712.08167 -0)
(-9765.638755 41345.16494 -0)
(-9971.170138 40987.38264 -0)
(-10153.7195 40637.91639 -0)
(-10314.83266 40296.14195 -0)
(-10455.96618 39961.59597 -0)
(-10578.51574 39633.90202 -0)
(-10683.82167 39312.69325 -0)
(-10773.15693 38997.56367 -0)
(-10847.70895 38688.06143 -0)
(-10908.56655 38383.71737 -0)
(-10956.71837 38084.08952 -0)
(-10993.06319 37788.80176 -0)
(-11018.42741 37497.5624 -0)
(-11033.58345 37210.15874 -0)
(-11039.26373 36926.4342 -0)
(-11036.16775 36646.2587 -0)
(-11024.96276 36369.50322 -0)
(-11006.28048 36096.02514 -0)
(-10980.71279 35825.66605 -0)
(-10948.80895 35558.259 -0)
(-10911.07542 35293.6403 -0)
(-10867.97832 35031.66083 -0)
(-10819.94759 34772.19358 -0)
(-10767.3816 34515.13648 -0)
(-10710.65141 34260.41106 -0)
(-10650.10416 34007.95854 -0)
(-10586.06543 33757.73499 -0)
(-10518.84093 33509.70676 -0)
(-10448.71762 33263.84708 -0)
(-10375.96481 33020.13362 -0)
(-10300.83529 32778.54673 -0)
(-10223.56652 32539.06792 -0)
(-10144.38168 32301.67846 -0)
(-10063.49061 32066.35806 -0)
(-9981.090468 31833.08389 -0)
(-9897.366201 31601.82996 -0)
(-9812.490811 31372.56711 -0)
(-9726.62548 31145.26349 -0)
(-9639.919712 30919.88584 -0)
(-9552.511555 30696.40107 -0)
(-9464.528032 30474.77794 -0)
(-9376.085778 30254.98858 -0)
(-9287.291784 30037.00959 -0)
(-9198.244261 29820.82267 -0)
(-9109.033577 29606.41478 -0)
(-9019.743173 29393.77773 -0)
(-8930.450428 29182.90729 -0)
(-8841.227386 28973.8021 -0)
(-8752.141315 28766.46242 -0)
(-8663.25514 28560.88906 -0)
(-8574.627765 28357.08235 -0)
(-8486.314311 28155.04137 -0)
(-8398.366227 27954.76334 -0)
(-8310.83135 27756.24341 -0)
(-8223.753971 27559.4747 -0)
(-8137.17491 27364.44855 -0)
(-8051.131638 27171.15473 -0)
(-7965.658435 26979.58175 -0)
(-7880.786495 26789.71711 -0)
(-7796.544059 26601.54764 -0)
(-7712.956594 26415.05977 -0)
(-7630.046972 26230.2398 -0)
(-7547.83566 26047.07393 -0)
(-7466.340896 25865.54832 -0)
(-7385.578794 25685.64919 -0)
(-7305.563459 25507.3629 -0)
(-7226.307154 25330.67616 -0)
(-7147.820463 25155.57602 -0)
(-7070.112462 24982.04981 -0)
(-6993.190854 24810.08507 -0)
(-6917.06203 24639.6694 -0)
(-6841.731139 24470.79057 -0)
(-6767.202191 24303.43649 -0)
(-6693.478151 24137.59524 -0)
(-6620.561043 23973.255 -0)
(-6548.452028 23810.40397 -0)
(-6477.151422 23649.03035 -0)
(-6406.658736 23489.12239 -0)
(-6336.972753 23330.6685 -0)
(-6268.091608 23173.65722 -0)
(-6200.012875 23018.07715 -0)
(-6132.733634 22863.91686 -0)
(-6066.250465 22711.16477 -0)
(-6000.559455 22559.80925 -0)
(-5935.656241 22409.83865 -0)
(-5871.536054 22261.24138 -0)
(-5808.19379 22114.00592 -0)
(-5745.624082 21968.12066 -0)
(-5683.821299 21823.57394 -0)
(-5622.77955 21680.3539 -0)
(-5562.492705 21538.44867 -0)
(-5502.954404 21397.84629 -0)
(-5444.158109 21258.53483 -0)
(-5386.097151 21120.50227 -0)
(-5328.764737 20983.73652 -0)
(-5272.153945 20848.22535 -0)
(-5216.257731 20713.95644 -0)
(-5161.06893 20580.91745 -0)
(-5106.580282 20449.09604 -0)
(-5052.784473 20318.47985 -0)
(-4999.674146 20189.05644 -0)
(-4947.24189 20060.81326 -0)
(-4895.48024 19933.73768 -0)
(-4844.381655 19807.81703 -0)
(-4793.938541 19683.03868 -0)
(-4744.14328 19559.39003 -0)
(-4694.988259 19436.85851 -0)
(-4646.465876 19315.43145 -0)
(-4598.568529 19195.09602 -0)
(-4551.288584 19075.83921 -0)
(-4504.618343 18957.6479 -0)
(-4458.550039 18840.50884 -0)
(-4413.075851 18724.40879 -0)
(-4368.187911 18609.33446 -0)
(-4323.8783 18495.27252 -0)
(-4280.13905 18382.20962 -0)
(-4236.962096 18270.13248 -0)
(-4194.339264 18159.02799 -0)
(-4152.262281 18048.88351 -0)
(-4110.722799 17939.68702 -0)
(-4069.712455 17831.42734 -0)
(-4029.222948 17724.09424 -0)
(-3989.246091 17617.67858 -0)
(-3949.773867 17512.17233 -0)
(-3910.798493 17407.56869 -0)
(-3872.312475 17303.8621 -0)
(-3834.308683 17201.04822 -0)
(-3796.78044 17099.12379 -0)
(-3759.721585 16998.08631 -0)
(-3723.126503 16897.93362 -0)
(-3686.990119 16798.66337 -0)
(-3651.307814 16700.27248 -0)
(-3616.075298 16602.75663 -0)
(-3581.288458 16506.10988 -0)
(-3546.943177 16410.3244 -0)
(-3513.035153 16315.39039 -0)
(-3479.559755 16221.29615 -0)
(-3446.511881 16128.0283 -0)
(-3413.88586 16035.57225 -0)
(-3381.675431 15943.91269 -0)
(-3349.873758 15853.03435 -0)
(-3318.473536 15762.92269 -0)
(-3287.467182 15673.56458 -0)
(-3256.847054 15584.94876 -0)
(-3226.605712 15497.06611 -0)
(-3196.736169 15409.90959 -0)
(-3167.232073 15323.47387 -0)
(-3138.087803 15237.75474 -0)
(-3109.298482 15152.74837 -0)
(-3080.859864 15068.45057 -0)
(-3052.768142 14984.85614 -0)
(-3025.019709 14901.95843 -0)
(-2997.610895 14819.74919 -0)
(-2970.537724 14738.21873 -0)
(-2943.795762 14657.35642 -0)
(-2917.380043 14577.15138 -0)
(-2891.285127 14497.59328 -0)
(-2865.505273 14418.67307 -0)
(-2840.034697 14340.38353 -0)
(-2814.867859 14262.71943 -0)
(-2789.999752 14185.67732 -0)
(-2765.426089 14109.25493 -0)
(-2741.143373 14033.45028 -0)
(-2717.148817 13958.26064 -0)
(-2693.440114 13883.6816 -0)
(-2670.015082 13809.70641 -0)
(-2646.871273 13736.32583 -0)
(-2624.005589 13663.52849 -0)
(-2601.41401 13591.30182 -0)
(-2579.091509 13519.63334 -0)
(-2557.032181 13448.51211 -0)
(-2535.229562 13377.92998 -0)
(-2513.677113 13307.88236 -0)
(-2492.368744 13238.36828 -0)
(-2471.299267 13169.3898 -0)
(-2450.464696 13100.95066 -0)
(-2429.862309 13033.05458 -0)
(-2409.490455 12965.70348 -0)
(-2389.348146 12898.89601 -0)
(-2369.434528 12832.62668 -0)
(-2349.748336 12766.88589 -0)
(-2330.287463 12701.6607 -0)
(-2311.048768 12636.93641 -0)
(-2292.028135 12572.69843 -0)
(-2273.220784 12508.93423 -0)
(-2254.621777 12445.63483 -0)
(-2236.226584 12382.79576 -0)
(-2218.031588 12320.41698 -0)
(-2200.03443 12258.50215 -0)
(-2182.234046 12197.05697 -0)
(-2164.630419 12136.08726 -0)
(-2147.224042 12075.59703 -0)
(-2130.015241 12015.58682 -0)
(-2113.003494 11956.05285 -0)
(-2096.186942 11896.98681 -0)
(-2079.562182 11838.37651 -0)
(-2063.124425 11780.20716 -0)
(-2046.867993 11722.46302 -0)
(-2030.787032 11665.12918 -0)
(-2014.876289 11608.19324 -0)
(-1999.131762 11551.64652 -0)
(-1983.551019 11495.48483 -0)
(-1968.133131 11439.70842 -0)
(-1952.878216 11384.32149 -0)
(-1937.786705 11329.33081 -0)
(-1922.858537 11274.74408 -0)
(-1908.092504 11220.56797 -0)
(-1893.485945 11166.80642 -0)
(-1879.0349 11113.45942 -0)
(-1864.734712 11060.52258 -0)
(-1850.580836 11007.9876 -0)
(-1836.569617 10955.84352 -0)
(-1822.698748 10904.0785 -0)
(-1808.967254 10852.68163 -0)
(-1795.375011 10801.64428 -0)
(-1781.921991 10750.96053 -0)
(-1768.607499 10700.62687 -0)
(-1755.429746 10650.64121 -0)
(-1742.385947 10601.00188 -0)
(-1729.472869 10551.70678 -0)
(-1716.687561 10502.75334 -0)
(-1704.027929 10454.13894 -0)
(-1691.492838 10405.8616 -0)
(-1679.081711 10357.92038 -0)
(-1666.793817 10310.3152 -0)
(-1654.62762 10263.04607 -0)
(-1642.580579 10216.11197 -0)
(-1630.649562 10169.51005 -0)
(-1618.831697 10123.23541 -0)
(-1607.125269 10077.28164 -0)
(-1595.530229 10031.64206 -0)
(-1584.048112 9986.310937 -0)
(-1572.68135 9941.284133 -0)
(-1561.432305 9896.559206 -0)
(-1550.302437 9852.134992 -0)
(-1539.291913 9808.011017 -0)
(-1528.399636 9764.186808 -0)
(-1517.623416 9720.661333 -0)
(-1506.960181 9677.43294 -0)
(-1496.406346 9634.499702 -0)
(-1485.958171 9591.859271 -0)
(-1475.611692 9549.507948 -0)
(-1465.362398 9507.440536 -0)
(-1455.20547 9465.651839 -0)
(-1445.136305 9424.137422 -0)
(-1435.149876 9382.892219 -0)
(-1425.239091 9341.909945 -0)
(-1415.39386 9301.183988 -0)
(-1405.600498 9260.705012 -0)
(-1395.840696 9220.454903 -0)
(-1386.093933 9180.400679 -0)
(-1376.348905 9140.485845 -0)
(-1366.626807 9100.623549 -0)
(-1357.014063 9060.714254 -0)
(-1347.678378 9020.706706 -0)
(-1338.813756 8980.68428 -0)
(-1330.532709 8940.852294 -0)
(-1322.940374 8901.315212 -0)
(-1316.187467 8862.382646 -0)
(-1309.735128 8825.05058 -0)
(-1303.368893 8788.289338 -0)
(-1296.236546 8751.677456 -0)
(-1286.984304 8711.849288 -0)
(-1275.431164 8667.936195 -0)
(-1261.569306 8618.938397 -0)
(-1245.738211 8563.764644 -0)
(-1228.570547 8501.734542 -0)
(-1210.705424 8432.506902 -0)
(-1192.585589 8356.146013 -0)
(-1174.359045 8272.800059 -0)
(-1155.766657 8182.611415 -0)
(-1136.355941 8085.502082 -0)
(-1115.587124 7981.107979 -0)
(-1092.967711 7868.698817 -0)
(-1068.232462 7747.83319 -0)
(-1041.254472 7617.399569 -0)
(-1012.029446 7477.037936 -0)
(-980.7140578 7326.183561 -0)
(-947.4155492 7164.150233 -0)
(-912.2672493 6991.169118 -0)
(-875.4745047 6806.738989 -0)
(-837.0486731 6610.963228 -0)
(-797.1911298 6404.367583 -0)
(-755.9655729 6186.586662 -0)
(-713.4998162 5959.086346 -0)
(-669.9720629 5721.366862 -0)
(-625.5256608 5475.762935 -0)
(-580.3751248 5221.939864 -0)
(-534.7087255 4962.798086 -0)
(-488.7400872 4699.076504 -0)
(-442.6427657 4433.551465 -0)
(-396.5919509 4168.771615 -0)
(-350.6972818 3907.575155 -0)
(-305.0318593 3654.053243 -0)
(-259.581671 3412.309065 -0)
(-214.2441664 3187.709216 -0)
(-168.7695626 2986.760322 -0)
(-122.7326852 2817.276728 -0)
(-75.40854969 2689.435067 -0)
(-25.66132609 2616.571358 -0)
(60394.4868 199133.4241 -0)
(66681.94628 183615.66 -0)
(69811.4861 167592.9416 -0)
(70085.60618 152302.1138 -0)
(68181.82569 138457.117 -0)
(64821.69457 126321.2205 -0)
(60607.38497 115876.209 -0)
(55980.19632 106965.6595 -0)
(51236.85792 99384.72579 -0)
(46563.72353 92926.8951 -0)
(42070.54154 87404.86841 -0)
(37817.12721 82657.99936 -0)
(33831.77792 78553.05264 -0)
(30122.95344 74981.4965 -0)
(26686.66823 71855.24684 -0)
(23511.59687 69102.41373 -0)
(20582.78318 66663.98857 -0)
(17884.05842 64491.57899 -0)
(15399.21559 62545.69731 -0)
(13112.34067 60794.09672 -0)
(11007.91881 59210.08355 -0)
(9071.124568 57771.10342 -0)
(7288.264223 56457.87814 -0)
(5647.064955 55254.05099 -0)
(4136.58824 54146.00905 -0)
(2746.842328 53122.54126 -0)
(1468.391854 52174.2445 -0)
(292.2307304 51292.87146 -0)
(-790.049277 50470.89975 -0)
(-1785.989008 49701.45525 -0)
(-2702.138279 48978.48579 -0)
(-3544.192791 48296.93984 -0)
(-4317.310862 47652.74595 -0)
(-5026.416569 47042.55824 -0)
(-5676.327952 46463.3998 -0)
(-6271.679929 45912.39157 -0)
(-6816.740578 45386.68367 -0)
(-7315.265943 44883.5732 -0)
(-7770.490337 44400.69047 -0)
(-8185.252498 43936.1179 -0)
(-8562.179035 43488.36938 -0)
(-8903.827879 43056.24825 -0)
(-9212.732925 42638.6664 -0)
(-9491.353559 42234.51436 -0)
(-9741.980772 41842.63122 -0)
(-9966.662781 41461.86452 -0)
(-10167.19004 41091.16848 -0)
(-10345.14185 40729.68027 -0)
(-10501.96589 40376.73693 -0)
(-10639.05182 40031.83119 -0)
(-10757.77039 39694.53325 -0)
(-10859.4709 39364.41595 -0)
(-10945.44934 39041.01236 -0)
(-11016.90901 38723.81566 -0)
(-11074.93405 38412.31164 -0)
(-11120.48567 38106.02358 -0)
(-11154.42009 37804.54827 -0)
(-11177.51826 37507.57059 -0)
(-11190.51546 37214.85472 -0)
(-11194.12168 36926.21935 -0)
(-11189.02906 36641.50786 -0)
(-11175.90826 36360.56384 -0)
(-11155.3988 36083.2181 -0)
(-11128.09872 35809.28783 -0)
(-11094.55811 35538.58466 -0)
(-11055.278 35270.92643 -0)
(-11010.71402 35006.14784 -0)
(-10961.2829 34744.10733 -0)
(-10907.36949 34484.6892 -0)
(-10849.33286 34227.8019 -0)
(-10787.51056 33973.37383 -0)
(-10722.2212 33721.34858 -0)
(-10653.76557 33471.68057 -0)
(-10582.42734 33224.33191 -0)
(-10508.47366 32979.27011 -0)
(-10432.15603 32736.4663 -0)
(-10353.71148 32495.89361 -0)
(-10273.36352 32257.52564 -0)
(-10191.32297 32021.33503 -0)
(-10107.78843 31787.29231 -0)
(-10022.94653 31555.36514 -0)
(-9936.971809 31325.51811 -0)
(-9850.026515 31097.71337 -0)
(-9762.260434 30871.91183 -0)
(-9673.810984 30648.07482 -0)
(-9584.803691 30426.16582 -0)
(-9495.35297 30206.15196 -0)
(-9405.5631 29988.00517 -0)
(-9315.52936 29771.70291 -0)
(-9225.339261 29557.22829 -0)
(-9135.073748 29344.56963 -0)
(-9044.808263 29133.71946 -0)
(-8954.613552 28924.67345 -0)
(-8864.556227 28717.42918 -0)
(-8774.69914 28511.98495 -0)
(-8685.10163 28308.33874 -0)
(-8595.819639 28106.4874 -0)
(-8506.905654 27906.42599 -0)
(-8418.408601 27708.14763 -0)
(-8330.373785 27511.64356 -0)
(-8242.842908 27316.90331 -0)
(-8155.854196 27123.91493 -0)
(-8069.442532 26932.66526 -0)
(-7983.639544 26743.14019 -0)
(-7898.473738 26555.32504 -0)
(-7813.970701 26369.20487 -0)
(-7730.153347 26184.76464 -0)
(-7647.042161 26001.98929 -0)
(-7564.655364 25820.86378 -0)
(-7483.008987 25641.37318 -0)
(-7402.116976 25463.50286 -0)
(-7321.991386 25287.2386 -0)
(-7242.642608 25112.56661 -0)
(-7164.079585 24939.47338 -0)
(-7086.309928 24767.94566 -0)
(-7009.339952 24597.9703 -0)
(-6933.174706 24429.5344 -0)
(-6857.818093 24262.62528 -0)
(-6783.272996 24097.23047 -0)
(-6709.541407 23933.33761 -0)
(-6636.624472 23770.93437 -0)
(-6564.522478 23610.00846 -0)
(-6493.234869 23450.54772 -0)
(-6422.760337 23292.54017 -0)
(-6353.096955 23135.97402 -0)
(-6284.242294 22980.83752 -0)
(-6216.193476 22827.11887 -0)
(-6148.947126 22674.80621 -0)
(-6082.499346 22523.88759 -0)
(-6016.845742 22374.35117 -0)
(-5951.98151 22226.18517 -0)
(-5887.901548 22079.37787 -0)
(-5824.600526 21933.91749 -0)
(-5762.072876 21789.79217 -0)
(-5700.31276 21646.98991 -0)
(-5639.314067 21505.4987 -0)
(-5579.070446 21365.30652 -0)
(-5519.575377 21226.40134 -0)
(-5460.822231 21088.77106 -0)
(-5402.804276 20952.40351 -0)
(-5345.514643 20817.28638 -0)
(-5288.946314 20683.40731 -0)
(-5233.092129 20550.75393 -0)
(-5177.944832 20419.31388 -0)
(-5123.497136 20289.07478 -0)
(-5069.741732 20160.02416 -0)
(-5016.671266 20032.14943 -0)
(-4964.278302 19905.43794 -0)
(-4912.555295 19779.87702 -0)
(-4861.494625 19655.45405 -0)
(-4811.088661 19532.15646 -0)
(-4761.329813 19409.97169 -0)
(-4712.21055 19288.88706 -0)
(-4663.723362 19168.88972 -0)
(-4615.860701 19049.96665 -0)
(-4568.61493 18932.1047 -0)
(-4521.978309 18815.29064 -0)
(-4475.943036 18699.51122 -0)
(-4430.501259 18584.75315 -0)
(-4385.645085 18471.00309 -0)
(-4341.366533 18358.24766 -0)
(-4297.657467 18246.47356 -0)
(-4254.509532 18135.66771 -0)
(-4211.914156 18025.8175 -0)
(-4169.862581 17916.91097 -0)
(-4128.34595 17808.93702 -0)
(-4087.355404 17701.88557 -0)
(-4046.88215 17595.74756 -0)
(-4006.917526 17490.51514 -0)
(-3967.453072 17386.18165 -0)
(-3928.480611 17282.74176 -0)
(-3889.992389 17180.19132 -0)
(-3851.981226 17078.5273 -0)
(-3814.440664 16977.74738 -0)
(-3777.365065 16877.84955 -0)
(-3740.74962 16778.83153 -0)
(-3704.590266 16680.69023 -0)
(-3668.883511 16583.42126 -0)
(-3633.626214 16487.01853 -0)
(-3598.815321 16391.47404 -0)
(-3564.447602 16296.77774 -0)
(-3530.519401 16202.91768 -0)
(-3497.026406 16109.88024 -0)
(-3463.963465 16017.65059 -0)
(-3431.324476 15926.2133 -0)
(-3399.102376 15835.55302 -0)
(-3367.289252 15745.65528 -0)
(-3335.876594 15656.50712 -0)
(-3304.855639 15568.09755 -0)
(-3274.217789 15480.41782 -0)
(-3243.955019 15393.46124 -0)
(-3214.060207 15307.22284 -0)
(-3184.527339 15221.69871 -0)
(-3155.351556 15136.88523 -0)
(-3126.529011 15052.77832 -0)
(-3098.056599 14969.37274 -0)
(-3069.931565 14886.66175 -0)
(-3042.151074 14804.63694 -0)
(-3014.711803 14723.28846 -0)
(-2987.609632 14642.60553 -0)
(-2960.839494 14562.57722 -0)
(-2934.395422 14483.19325 -0)
(-2908.270805 14404.44471 -0)
(-2882.458794 14326.32461 -0)
(-2856.952812 14248.82799 -0)
(-2831.747047 14171.95168 -0)
(-2806.836831 14095.6936 -0)
(-2782.218821 14020.05183 -0)
(-2757.890928 13945.02362 -0)
(-2733.851968 13870.60436 -0)
(-2710.101106 13796.78703 -0)
(-2686.637164 13723.56208 -0)
(-2663.457944 13650.91784 -0)
(-2640.559701 13578.84158 -0)
(-2617.936927 13507.32078 -0)
(-2595.582494 13436.34465 -0)
(-2573.488178 13365.9053 -0)
(-2551.645454 13295.99849 -0)
(-2530.046421 13226.62358 -0)
(-2508.684636 13157.78281 -0)
(-2487.555695 13089.47995 -0)
(-2466.657419 13021.71853 -0)
(-2445.989584 12954.50011 -0)
(-2425.553246 12887.82289 -0)
(-2405.349803 12821.68095 -0)
(-2385.37999 12756.0644 -0)
(-2365.643039 12690.96029 -0)
(-2346.136198 12626.35421 -0)
(-2326.854696 12562.23212 -0)
(-2307.792177 12498.58222 -0)
(-2288.941493 12435.39634 -0)
(-2270.295693 12372.67067 -0)
(-2251.849005 12310.40555 -0)
(-2233.597596 12248.60461 -0)
(-2215.539904 12187.27307 -0)
(-2197.676472 12126.41587 -0)
(-2180.009294 12066.03588 -0)
(-2162.540833 12006.1325 -0)
(-2145.272947 11946.70096 -0)
(-2128.205967 11887.73246 -0)
(-2111.338132 11829.21489 -0)
(-2094.665482 11771.13416 -0)
(-2078.182229 11713.47581 -0)
(-2061.881519 11656.22665 -0)
(-2045.756371 11599.37607 -0)
(-2029.800595 11542.91702 -0)
(-2014.009439 11486.84641 -0)
(-1998.379859 11431.16494 -0)
(-1982.910391 11375.87638 -0)
(-1967.600681 11320.98636 -0)
(-1952.450815 11266.50082 -0)
(-1937.46063 11212.42447 -0)
(-1922.629211 11158.75942 -0)
(-1907.954716 11105.50436 -0)
(-1893.434555 11052.65434 -0)
(-1879.065795 11000.20125 -0)
(-1864.845624 10948.13499 -0)
(-1850.77169 10896.44495 -0)
(-1836.842213 10845.12142 -0)
(-1823.055836 10794.15667 -0)
(-1809.411264 10743.54518 -0)
(-1795.906842 10693.28344 -0)
(-1782.540295 10643.36913 -0)
(-1769.308774 10593.80036 -0)
(-1756.209187 10544.5751 -0)
(-1743.238662 10495.69107 -0)
(-1730.394941 10447.14606 -0)
(-1717.676505 10398.93834 -0)
(-1705.082375 10351.06688 -0)
(-1692.611668 10303.53109 -0)
(-1680.263125 10256.33024 -0)
(-1668.034907 10209.46269 -0)
(-1655.924808 10162.92535 -0)
(-1643.930774 10116.71359 -0)
(-1632.051482 10070.82174 -0)
(-1620.286721 10025.244 -0)
(-1608.637432 9979.975317 -0)
(-1597.105293 9935.011845 -0)
(-1585.691989 9890.35092 -0)
(-1574.398492 9845.990779 -0)
(-1563.224754 9801.930323 -0)
(-1552.169792 9758.168761 -0)
(-1541.231747 9714.704882 -0)
(-1530.407788 9671.536511 -0)
(-1519.694422 9628.661042 -0)
(-1509.088295 9586.076183 -0)
(-1498.586304 9543.778971 -0)
(-1488.184495 9501.764183 -0)
(-1477.877779 9460.025462 -0)
(-1467.661378 9418.557764 -0)
(-1457.530941 9377.356341 -0)
(-1447.480149 9336.414178 -0)
(-1437.499868 9295.722587 -0)
(-1427.579523 9255.270705 -0)
(-1417.706991 9215.039799 -0)
(-1407.870773 9174.998117 -0)
(-1398.070746 9135.097453 -0)
(-1388.334724 9095.272363 -0)
(-1378.736617 9055.458767 -0)
(-1369.401919 9015.639275 -0)
(-1360.470846 8975.890409 -0)
(-1352.040341 8936.369411 -0)
(-1344.181071 8897.223904 -0)
(-1336.911411 8858.718798 -0)
(-1329.908846 8821.31057 -0)
(-1322.924893 8784.682861 -0)
(-1315.210976 8747.489457 -0)
(-1305.749118 8707.135018 -0)
(-1294.221989 8662.766001 -0)
(-1280.564932 8613.458899 -0)
(-1265.012214 8558.257655 -0)
(-1248.06249 8496.45204 -0)
(-1230.25304 8427.610667 -0)
(-1211.989129 8351.674112 -0)
(-1193.44694 8268.71616 -0)
(-1174.418729 8178.795856 -0)
(-1154.519538 8081.868937 -0)
(-1133.271474 7977.561182 -0)
(-1110.18295 7865.202879 -0)
(-1085.006772 7744.380627 -0)
(-1057.605629 7614.012895 -0)
(-1027.934903 7473.730643 -0)
(-996.1717965 7323.001686 -0)
(-962.3890363 7161.094338 -0)
(-926.7173628 6988.264863 -0)
(-889.3810946 6803.996055 -0)
(-850.3635086 6608.370227 -0)
(-809.8944901 6401.946676 -0)
(-768.0256297 6184.313571 -0)
(-724.8973998 5956.97937 -0)
(-680.6863475 5719.407662 -0)
(-635.5403364 5473.96002 -0)
(-589.6825655 5220.28054 -0)
(-543.2911307 4961.284038 -0)
(-496.6003992 4697.695909 -0)
(-449.7689162 4432.30152 -0)
(-402.9871912 4167.640072 -0)
(-356.3607049 3906.556032 -0)
(-309.9634103 3653.133369 -0)
(-263.7848223 3411.480262 -0)
(-217.7168721 3186.95791 -0)
(-171.5080127 2986.076059 -0)
(-124.7263882 2816.64503 -0)
(-76.63403972 2688.84208 -0)
(-26.07821026 2615.998655 -0)
(52886.308 195104.7755 -0)
(58561.33421 181127.1508 -0)
(61707.91867 166663.2951 -0)
(62474.38436 152667.2147 -0)
(61322.49184 139758.4285 -0)
(58798.92958 128224.8075 -0)
(55397.71159 118119.5106 -0)
(51506.63537 109361.6184 -0)
(47403.53339 101808.5362 -0)
(43274.59757 95299.55175 -0)
(39238.31972 89679.22021 -0)
(35366.63149 84808.44132 -0)
(31700.23452 80568.18186 -0)
(28258.64407 76858.8354 -0)
(25047.01728 73597.53523 -0)
(22061.43242 70715.20041 -0)
(19293.05277 68154.23954 -0)
(16730.88182 65866.93636 -0)
(14363.01997 63814.03728 -0)
(12176.96816 61963.19688 -0)
(10159.80672 60287.38149 -0)
(8298.720096 58763.58566 -0)
(6581.719459 57372.08688 -0)