/*--------------------------------*- C++ -*----------------------------------*\
  =========                 |
  \\      /  F ield         | OpenFOAM: The Open Source CFD Toolbox
   \\    /   O peration     | Website:  https://openfoam.org
    \\  /    A nd           | Version:  7
     \\/     M anipulation  |
\*---------------------------------------------------------------------------*/
FoamFile
{
    version     2.0;
    format      ascii;
    class       volScalarField;
    location    "4e-13/dielectric";
    object      voltD;
}
// * * * * * * * * * * * * * * * * * * * * * * * * * * * * * * * * * * * * * //

dimensions      [1 2 -3 0 0 -1 0];

internalField   nonuniform List<scalar> 
4963
(
1.10564
1.08731
1.06938
1.05186
1.03472
1.01797
1.00158
0.985557
0.969885
0.954555
0.939559
0.924888
0.910534
0.896489
0.882745
0.869294
0.85613
0.843244
0.83063
0.818281
0.80619
0.794352
0.782759
0.771406
0.760287
0.749396
0.738728
0.728276
0.718037
0.708004
0.698173
0.688539
0.679097
0.669843
0.660772
0.65188
0.643163
0.634616
0.626235
0.618018
0.609959
0.602056
0.594304
0.586701
0.579242
0.571925
0.564747
0.557704
0.550793
0.544011
0.537356
0.530825
0.524414
0.518122
0.511946
0.505883
0.499931
0.494087
0.488349
0.482715
0.477183
0.471751
0.466416
0.461177
0.456031
0.450976
0.446012
0.441135
0.436344
0.431638
0.427015
0.422473
0.41801
0.413625
0.409316
0.405083
0.400923
0.396835
0.392817
0.388869
0.38499
0.381177
0.377429
0.373746
0.370127
0.366569
0.363072
0.359636
0.356258
0.352937
0.349674
0.346466
0.343313
0.340215
0.337169
0.334176
0.331238
0.328359
3.3165
3.26152
3.20775
3.15518
3.10378
3.05353
3.00438
2.95632
2.90931
2.86333
2.81835
2.77435
2.73129
2.68917
2.64794
2.6076
2.56811
2.52946
2.49163
2.45459
2.41832
2.38281
2.34804
2.31399
2.28063
2.24797
2.21597
2.18462
2.1539
2.12381
2.09432
2.06543
2.0371
2.00935
1.98214
1.95547
1.92932
1.90368
1.87854
1.85389
1.82972
1.80602
1.78276
1.75996
1.73759
1.71564
1.69411
1.67298
1.65225
1.63191
1.61195
1.59235
1.57313
1.55425
1.53573
1.51754
1.49968
1.48216
1.46494
1.44805
1.43145
1.41516
1.39915
1.38344
1.368
1.35284
1.33795
1.32332
1.30895
1.29483
1.28096
1.26734
1.25395
1.2408
1.22787
1.21518
1.2027
1.19043
1.17838
1.16654
1.1549
1.14347
1.13222
1.12118
1.11032
1.09965
1.08916
1.07885
1.06872
1.05876
1.04897
1.03934
1.02989
1.02059
1.01145
1.00247
0.993656
0.985018
5.52608
5.43448
5.34491
5.25733
5.1717
5.08798
5.0061
4.92603
4.84771
4.77111
4.69617
4.62286
4.55113
4.48094
4.41226
4.34505
4.27926
4.21486
4.15183
4.09012
4.0297
3.97053
3.9126
3.85587
3.8003
3.74587
3.69256
3.64033
3.58915
3.53902
3.48988
3.44174
3.39455
3.3483
3.30297
3.25853
3.21496
3.17225
3.13037
3.0893
3.04902
3.00952
2.97078
2.93278
2.89551
2.85894
2.82306
2.78786
2.75332
2.71943
2.68617
2.65352
2.62148
2.59004
2.55917
2.52886
2.49911
2.46991
2.44123
2.41307
2.38542
2.35827
2.33161
2.30542
2.2797
2.25444
2.22962
2.20525
2.1813
2.15778
2.13467
2.11197
2.08966
2.06774
2.04621
2.02505
2.00426
1.98382
1.96374
1.94401
1.92462
1.90556
1.88683
1.86842
1.85033
1.83254
1.81507
1.79789
1.781
1.76441
1.74809
1.73206
1.7163
1.70081
1.68558
1.67061
1.6559
1.64148
7.73358
7.60539
7.48007
7.35754
7.23773
7.12058
7.00602
6.89399
6.78441
6.67722
6.57237
6.46979
6.36943
6.27122
6.17512
6.08107
5.98901
5.89891
5.81071
5.72436
5.63982
5.55703
5.47597
5.39658
5.31883
5.24267
5.16806
5.09498
5.02337
4.95321
4.88447
4.81709
4.75106
4.68635
4.62291
4.56072
4.49976
4.43999
4.38138
4.32391
4.26755
4.21228
4.15806
4.10489
4.05272
4.00155
3.95134
3.90208
3.85375
3.80632
3.75977
3.71409
3.66925
3.62524
3.58205
3.53964
3.49801
3.45713
3.417
3.37759
3.3389
3.3009
3.26359
3.22694
3.19094
3.15559
3.12086
3.08675
3.05324
3.02032
2.98798
2.9562
2.92499
2.89431
2.86417
2.83456
2.80546
2.77686
2.74876
2.72114
2.694
2.66733
2.64111
2.61535
2.59003
2.56514
2.54068
2.51663
2.493
2.46977
2.44694
2.4245
2.40245
2.38077
2.35946
2.33851
2.31791
2.29767
9.93815
9.77343
9.61243
9.45501
9.3011
9.1506
9.00342
8.85949
8.71871
8.58101
8.4463
8.31451
8.18557
8.0594
7.93593
7.81509
7.69683
7.58106
7.46774
7.3568
7.24818
7.14182
7.03767
6.93567
6.83577
6.73791
6.64206
6.54816
6.45615
6.36601
6.27767
6.19111
6.10627
6.02312
5.94161
5.8617
5.78337
5.70657
5.63126
5.55741
5.485
5.41397
5.34431
5.27598
5.20895
5.1432
5.07868
5.01539
4.95328
4.89233
4.83252
4.77382
4.7162
4.65965
4.60414
4.54964
4.49614
4.44362
4.39205
4.34141
4.29169
4.24286
4.1949
4.14781
4.10155
4.05612
4.01149
3.96765
3.92459
3.88228
3.84072
3.79989
3.75977
3.72035
3.68162
3.64356
3.60616
3.56941
3.53329
3.4978
3.46292
3.42864
3.39495
3.36184
3.3293
3.29731
3.26587
3.23497
3.2046
3.17475
3.14541
3.11657
3.08822
3.06036
3.03297
3.00605
2.97958
2.95353
12.1389
11.9378
11.7412
11.549
11.3611
11.1773
10.9976
10.8218
10.6499
10.4818
10.3173
10.1564
9.99894
9.84488
9.69411
9.54656
9.40214
9.26078
9.1224
8.98693
8.85428
8.7244
8.59722
8.47266
8.35066
8.23117
8.11411
7.99944
7.88708
7.777
7.66912
7.56341
7.4598
7.35824
7.2587
7.16112
7.06545
6.97165
6.87968
6.7895
6.70105
6.61431
6.52923
6.44578
6.36392
6.28361
6.20482
6.12751
6.05165
5.97721
5.90416
5.83246
5.76209
5.69302
5.62522
5.55866
5.49331
5.42916
5.36617
5.30432
5.24358
5.18394
5.12537
5.06784
5.01134
4.95585
4.90134
4.84779
4.79519
4.74351
4.69274
4.64287
4.59386
4.54571
4.4984
4.45191
4.40622
4.36133
4.31721
4.27386
4.23125
4.18937
4.14822
4.10777
4.06801
4.02894
3.99054
3.95279
3.91569
3.87922
3.84337
3.80814
3.77351
3.73947
3.70602
3.67314
3.64081
3.609
14.3351
14.0977
13.8656
13.6387
13.4169
13.1999
12.9878
12.7803
12.5774
12.3789
12.1848
11.9948
11.8089
11.6271
11.4491
11.2749
11.1044
10.9375
10.7742
10.6142
10.4576
10.3043
10.1541
10.0071
9.86307
9.72199
9.58379
9.4484
9.31576
9.18578
9.05842
8.9336
8.81127
8.69137
8.57384
8.45863
8.34567
8.23493
8.12633
8.01985
7.91542
7.813
7.71254
7.614
7.51734
7.42251
7.32947
7.23819
7.14861
7.06071
6.97445
6.88979
6.80669
6.72513
6.64506
6.56647
6.4893
6.41354
6.33916
6.26612
6.1944
6.12396
6.05479
5.98686
5.92014
5.8546
5.79023
5.72699
5.66487
5.60384
5.54388
5.48498
5.4271
5.37024
5.31436
5.25945
5.2055
5.15248
5.10037
5.04917
4.99885
4.94939
4.90078
4.85301
4.80606
4.75991
4.71455
4.66997
4.62614
4.58307
4.54073
4.49912
4.45822
4.41801
4.37849
4.33966
4.30149
4.26395
16.5257
16.2522
15.9848
15.7234
15.4677
15.2178
14.9734
14.7343
14.5005
14.2718
14.048
13.8291
13.6149
13.4054
13.2003
12.9995
12.8031
12.6108
12.4225
12.2382
12.0577
11.881
11.708
11.5385
11.3725
11.2099
11.0507
10.8946
10.7418
10.592
10.4452
10.3013
10.1603
10.0221
9.88668
9.75389
9.6237
9.49605
9.37089
9.24815
9.12778
9.00973
8.89394
8.78036
8.66894
8.55963
8.45239
8.34716
8.24391
8.14259
8.04315
7.94556
7.84977
7.75575
7.66346
7.57285
7.4839
7.39656
7.31081
7.22661
7.14393
7.06274
6.98299
6.90468
6.82776
6.7522
6.67799
6.60508
6.53347
6.46311
6.39399
6.32607
6.25935
6.19378
6.12936
6.06606
6.00385
5.94272
5.88265
5.82361
5.76559
5.70857
5.65252
5.59744
5.54331
5.49009
5.43779
5.38639
5.33586
5.2862
5.23738
5.1894
5.14223
5.09587
5.05031
5.00552
4.9615
4.91824
18.71
18.4006
18.098
17.8022
17.513
17.2301
16.9536
16.6831
16.4185
16.1597
15.9065
15.6587
15.4164
15.1792
14.9471
14.7199
14.4976
14.28
14.0669
13.8583
13.6541
13.4541
13.2583
13.0665
12.8786
12.6946
12.5143
12.3377
12.1647
11.9952
11.829
11.6662
11.5066
11.3502
11.1969
11.0466
10.8992
10.7547
10.613
10.4741
10.3378
10.2042
10.0731
9.94457
9.81844
9.6947
9.5733
9.45418
9.33729
9.22259
9.11002
8.99954
8.8911
8.78466
8.68017
8.57759
8.47689
8.37801
8.28093
8.1856
8.09199
8.00006
7.90978
7.82111
7.73402
7.64848
7.56445
7.4819
7.40082
7.32115
7.24289
7.16599
7.09044
7.0162
6.94326
6.87158
6.80114
6.73192
6.6639
6.59705
6.53135
6.46678
6.40332
6.34094
6.27964
6.21938
6.16016
6.10194
6.04473
5.98848
5.9332
5.87886
5.82545
5.77296
5.72135
5.67062
5.62077
5.57178
20.8873
20.5421
20.2045
19.8745
19.5518
19.2363
18.9277
18.6259
18.3307
18.0419
17.7594
17.483
17.2126
16.948
16.689
16.4355
16.1875
15.9446
15.7069
15.4741
15.2462
15.0231
14.8045
14.5905
14.3809
14.1755
13.9743
13.7773
13.5842
13.395
13.2095
13.0278
12.8497
12.6752
12.5041
12.3363
12.1718
12.0106
11.8524
11.6974
11.5453
11.3961
11.2498
11.1063
10.9656
10.8275
10.6919
10.559
10.4285
10.3005
10.1748
10.0515
9.93044
9.81162
9.69499
9.58048
9.46806
9.35769
9.24931
9.14289
9.03839
8.93576
8.83497
8.73598
8.63875
8.54325
8.44944
8.35729
8.26675
8.17782
8.09043
8.00458
7.92023
7.83734
7.7559
7.67587
7.59723
7.51994
7.44399
7.36935
7.29599
7.22389
7.15303
7.08339
7.01493
6.94765
6.88152
6.81652
6.75263
6.68982
6.62809
6.56742
6.50777
6.44915
6.39152
6.33488
6.2792
6.22447
23.0566
22.6758
22.3035
21.9395
21.5835
21.2354
20.895
20.5621
20.2365
19.9179
19.6063
19.3014
19.003
18.7111
18.4254
18.1458
17.8721
17.6042
17.3419
17.0851
16.8336
16.5874
16.3463
16.1101
15.8788
15.6523
15.4303
15.2128
14.9998
14.791
14.5864
14.3859
14.1894
13.9967
13.8079
13.6228
13.4413
13.2633
13.0888
12.9177
12.7498
12.5852
12.4238
12.2654
12.11
11.9576
11.8081
11.6613
11.5173
11.376
11.2373
11.1012
10.9676
10.8364
10.7077
10.5813
10.4572
10.3354
10.2157
10.0983
9.98292
9.86964
9.75838
9.64911
9.54178
9.43635
9.33279
9.23106
9.13112
9.03293
8.93647
8.84169
8.74857
8.65706
8.56715
8.47879
8.39197
8.30664
8.22279
8.14038
8.05939
7.97978
7.90155
7.82465
7.74907
7.67478
7.60177
7.52999
7.45945
7.39011
7.32194
7.25495
7.18909
7.12436
7.06073
6.99818
6.9367
6.87626
25.2173
24.8011
24.3942
23.9964
23.6074
23.227
22.8549
22.4911
22.1352
21.787
21.4464
21.1132
20.7871
20.468
20.1557
19.8501
19.5509
19.2581
18.9714
18.6907
18.4158
18.1467
17.8831
17.625
17.3721
17.1244
16.8818
16.644
16.4111
16.1828
15.9592
15.74
15.5251
15.3145
15.108
14.9056
14.7072
14.5126
14.3218
14.1347
13.9512
13.7712
13.5947
13.4215
13.2516
13.0849
12.9214
12.7609
12.6034
12.4489
12.2972
12.1484
12.0023
11.8588
11.7181
11.5798
11.4441
11.3109
11.18
11.0516
10.9254
10.8015
10.6798
10.5603
10.4429
10.3276
10.2143
10.1031
9.99375
9.88635
9.78084
9.67716
9.5753
9.47521
9.37685
9.2802
9.18523
9.09189
9.00016
8.91001
8.82141
8.73433
8.64874
8.56462
8.48194
8.40067
8.32078
8.24226
8.16509
8.08922
8.01465
7.94135
7.8693
7.79848
7.72886
7.66043
7.59317
7.52703
27.3684
26.917
26.4758
26.0444
25.6226
25.2101
24.8067
24.4121
24.0262
23.6486
23.2792
22.9178
22.5642
22.2181
21.8795
21.548
21.2235
20.9059
20.5949
20.2905
19.9923
19.7004
19.4145
19.1345
18.8602
18.5915
18.3283
18.0704
17.8178
17.5702
17.3275
17.0897
16.8566
16.6281
16.4041
16.1846
15.9693
15.7582
15.5511
15.3481
15.149
14.9538
14.7622
14.5743
14.39
14.2091
14.0316
13.8575
13.6866
13.519
13.3544
13.1929
13.0343
12.8787
12.7259
12.5759
12.4286
12.284
12.142
12.0026
11.8657
11.7312
11.5991
11.4694
11.342
11.2168
11.0939
10.9731
10.8545
10.7379
10.6234
10.5109
10.4003
10.2916
10.1849
10.08
9.97687
9.87555
9.77597
9.67811
9.58193
9.4874
9.39449
9.30317
9.21341
9.12518
9.03846
8.95321
8.86943
8.78706
8.7061
8.62652
8.5483
8.47141
8.39582
8.32153
8.2485
8.17669
29.5091
29.0229
28.5477
28.083
27.6286
27.1842
26.7496
26.3246
25.9088
25.502
25.1041
24.7147
24.3337
23.9609
23.596
23.2389
22.8893
22.547
22.212
21.8839
21.5627
21.2481
20.9401
20.6383
20.3428
20.0532
19.7696
19.4917
19.2194
18.9525
18.691
18.4347
18.1835
17.9373
17.6959
17.4592
17.2272
16.9996
16.7765
16.5577
16.3431
16.1326
15.9261
15.7236
15.5249
15.3299
15.1386
14.9509
14.7667
14.5859
14.4085
14.2344
14.0634
13.8956
13.7309
13.5692
13.4104
13.2545
13.1014
12.9511
12.8035
12.6585
12.5161
12.3762
12.2388
12.1039
11.9713
11.8411
11.7131
11.5874
11.4639
11.3426
11.2234
11.1062
10.9911
10.8779
10.7667
10.6575
10.5501
10.4446
10.3408
10.2389
10.1387
10.0402
9.94336
9.84821
9.75467
9.66273
9.57236
9.48352
9.3962
9.31036
9.22599
9.14305
9.06152
8.98138
8.9026
8.82514
31.6387
31.118
30.609
30.1112
29.6245
29.1486
28.6831
28.2278
27.7824
27.3467
26.9204
26.5033
26.0951
25.6957
25.3048
24.9222
24.5477
24.181
23.8221
23.4706
23.1264
22.7894
22.4593
22.136
21.8193
21.5091
21.2051
20.9073
20.6155
20.3296
20.0494
19.7747
19.5055
19.2416
18.9829
18.7293
18.4806
18.2367
17.9976
17.7631
17.5331
17.3074
17.0861
16.869
16.656
16.4471
16.242
16.0408
15.8434
15.6496
15.4594
15.2727
15.0895
14.9096
14.733
14.5596
14.3894
14.2222
14.0581
13.8969
13.7387
13.5832
13.4305
13.2806
13.1333
12.9886
12.8464
12.7068
12.5696
12.4348
12.3024
12.1723
12.0444
11.9188
11.7953
11.674
11.5547
11.4376
11.3224
11.2092
11.098
10.9886
10.8812
10.7755
10.6717
10.5696
10.4693
10.3707
10.2738
10.1785
10.0848
9.99277
9.90226
9.8133
9.72585
9.63989
9.55539
9.4723
33.7563
33.2015
32.6589
32.1285
31.6098
31.1025
30.6063
30.121
29.6463
29.1819
28.7275
28.2829
27.8479
27.4221
27.0054
26.5975
26.1982
25.8074
25.4247
25.05
24.683
24.3237
23.9718
23.6271
23.2894
22.9586
22.6346
22.317
22.0059
21.701
21.4022
21.1093
20.8222
20.5408
20.2649
19.9944
19.7292
19.4691
19.2141
18.964
18.7186
18.478
18.242
18.0104
17.7832
17.5603
17.3416
17.127
16.9164
16.7097
16.5068
16.3076
16.1122
15.9203
15.7319
15.5469
15.3653
15.187
15.0119
14.8399
14.671
14.5052
14.3423
14.1823
14.0251
13.8707
13.7191
13.5701
13.4237
13.2799
13.1385
12.9997
12.8632
12.7292
12.5974
12.4679
12.3407
12.2156
12.0927
11.9719
11.8532
11.7365
11.6218
11.5091
11.3983
11.2894
11.1823
11.077
10.9736
10.8719
10.7719
10.6736
10.577
10.4821
10.3887
10.297
10.2068
10.1181
35.8613
35.2726
34.6969
34.134
33.5836
33.0453
32.5188
32.0038
31.5
31.0071
30.5249
30.053
29.5913
29.1394
28.6971
28.2642
27.8404
27.4255
27.0193
26.6216
26.2321
25.8506
25.4771
25.1111
24.7527
24.4015
24.0575
23.7204
23.39
23.0663
22.749
22.4381
22.1333
21.8344
21.5415
21.2543
20.9727
20.6965
20.4257
20.1601
19.8996
19.644
19.3933
19.1474
18.9062
18.6694
18.4371
18.2092
17.9855
17.7659
17.5504
17.3389
17.1313
16.9275
16.7273
16.5309
16.338
16.1485
15.9625
15.7798
15.6004
15.4243
15.2512
15.0812
14.9142
14.7502
14.5891
14.4308
14.2752
14.1224
13.9723
13.8247
13.6797
13.5373
13.3973
13.2597
13.1245
12.9916
12.861
12.7326
12.6065
12.4825
12.3606
12.2408
12.123
12.0072
11.8934
11.7816
11.6716
11.5635
11.4573
11.3528
11.2502
11.1492
11.05
10.9525
10.8566
10.7624
37.9528
37.3306
36.7221
36.1271
35.5453
34.9763
34.4197
33.8753
33.3427
32.8217
32.3119
31.8131
31.3249
30.8471
30.3795
29.9218
29.4737
29.035
28.6055
28.185
27.7731
27.3698
26.9747
26.5877
26.2087
25.8373
25.4734
25.1169
24.7676
24.4252
24.0896
23.7607
23.4383
23.1223
22.8124
22.5086
22.2107
21.9186
21.6321
21.3511
21.0755
20.8052
20.54
20.2798
20.0246
19.7741
19.5283
19.2872
19.0505
18.8182
18.5902
18.3664
18.1466
17.931
17.7192
17.5113
17.3071
17.1067
16.9098
16.7165
16.5267
16.3402
16.157
15.9771
15.8004
15.6268
15.4562
15.2887
15.1241
14.9623
14.8034
14.6472
14.4938
14.343
14.1948
14.0491
13.906
13.7653
13.627
13.4912
13.3576
13.2263
13.0973
12.9704
12.8457
12.7232
12.6027
12.4843
12.3678
12.2534
12.1409
12.0303
11.9216
11.8147
11.7097
11.6064
11.5049
11.4052
40.0301
39.3747
38.7338
38.1071
37.4942
36.8948
36.3085
35.735
35.174
34.6251
34.088
33.5624
33.0481
32.5447
32.0521
31.5698
31.0977
30.6354
30.1828
29.7397
29.3057
28.8806
28.4643
28.0565
27.657
27.2656
26.8821
26.5064
26.1381
25.7773
25.4236
25.0769
24.7371
24.4039
24.0773
23.757
23.443
23.135
22.833
22.5368
22.2463
21.9612
21.6817
21.4073
21.1382
20.8741
20.615
20.3607
20.1111
19.8661
19.6257
19.3897
19.158
18.9306
18.7072
18.488
18.2727
18.0613
17.8537
17.6498
17.4495
17.2528
17.0597
16.8699
16.6835
16.5004
16.3205
16.1437
15.9701
15.7994
15.6318
15.467
15.3051
15.146
14.9897
14.836
14.685
14.5366
14.3907
14.2474
14.1065
13.9679
13.8318
13.6979
13.5664
13.4371
13.3099
13.185
13.0621
12.9414
12.8226
12.7059
12.5912
12.4784
12.3676
12.2586
12.1514
12.0462
42.0925
41.4044
40.7314
40.0733
39.4297
38.8003
38.1846
37.5823
36.9931
36.4166
35.8525
35.3006
34.7604
34.2317
33.7142
33.2076
32.7117
32.2262
31.7507
31.2852
30.8293
30.3827
29.9454
29.5169
29.0972
28.686
28.2831
27.8883
27.5014
27.1222
26.7506
26.3863
26.0292
25.6791
25.3358
24.9993
24.6692
24.3456
24.0282
23.7169
23.4115
23.1119
22.818
22.5297
22.2468
21.9692
21.6968
21.4295
21.1671
20.9096
20.6569
20.4087
20.1652
19.926
19.6912
19.4607
19.2344
19.0121
18.7938
18.5794
18.3688
18.162
17.9589
17.7593
17.5633
17.3707
17.1816
16.9957
16.813
16.6336
16.4573
16.284
16.1137
15.9464
15.782
15.6204
15.4615
15.3054
15.152
15.0012
14.8529
14.7072
14.564
14.4232
14.2848
14.1488
14.015
13.8836
13.7543
13.6273
13.5024
13.3796
13.2589
13.1403
13.0236
12.9089
12.7962
12.6854
44.1393
43.4187
42.7141
42.025
41.3511
40.692
40.0472
39.4165
38.7995
38.1958
37.605
37.027
36.4612
35.9075
35.3655
34.8349
34.3154
33.8068
33.3088
32.8211
32.3435
31.8757
31.4175
30.9687
30.529
30.0981
29.676
29.2623
28.857
28.4596
28.0702
27.6885
27.3143
26.9474
26.5877
26.235
25.8891
25.5499
25.2173
24.891
24.5709
24.2569
23.9489
23.6467
23.3501
23.0592
22.7736
22.4934
22.2183
21.9484
21.6834
21.4233
21.1679
20.9172
20.671
20.4293
20.192
19.9589
19.73
19.5052
19.2844
19.0675
18.8545
18.6453
18.4397
18.2378
18.0393
17.8444
17.6529
17.4647
17.2797
17.098
16.9194
16.7439
16.5714
16.4019
16.2353
16.0716
15.9106
15.7524
15.5969
15.444
15.2938
15.1461
15.0009
14.8582
14.7179
14.58
14.4444
14.3111
14.18
14.0512
13.9246
13.8001
13.6777
13.5574
13.4391
13.3228
46.1696
45.4171
44.6812
43.9616
43.2577
42.5693
41.8959
41.2371
40.5926
39.962
39.3449
38.741
38.15
37.5715
37.0053
36.451
35.9083
35.3769
34.8565
34.347
33.8479
33.3592
32.8804
32.4113
31.9518
31.5016
31.0604
30.6281
30.2044
29.7892
29.3822
28.9832
28.5921
28.2086
27.8326
27.4639
27.1023
26.7478
26.4
26.0589
25.7242
25.396
25.0739
24.758
24.4479
24.1437
23.8451
23.5521
23.2645
22.9822
22.7051
22.433
22.166
21.9038
21.6463
21.3936
21.1453
20.9016
20.6622
20.427
20.1961
19.9693
19.7464
19.5275
19.3125
19.1012
18.8937
18.6898
18.4894
18.2925
18.099
17.9089
17.722
17.5384
17.3579
17.1806
17.0062
16.8349
16.6665
16.501
16.3382
16.1783
16.0211
15.8665
15.7146
15.5652
15.4184
15.274
15.1321
14.9926
14.8555
14.7207
14.5881
14.4578
14.3298
14.2038
14.08
13.9583
48.9847
48.183
47.3989
46.6321
45.8823
45.1489
44.4316
43.7299
43.0435
42.3718
41.7147
41.0716
40.4423
39.8263
39.2234
38.6332
38.0555
37.4898
36.9359
36.3935
35.8624
35.3421
34.8326
34.3335
33.8445
33.3654
32.896
32.436
31.9853
31.5435
31.1106
30.6861
30.2701
29.8622
29.4623
29.0702
28.6857
28.3086
27.9388
27.5761
27.2203
26.8713
26.5289
26.1929
25.8633
25.5399
25.2225
24.9111
24.6054
24.3053
24.0108
23.7217
23.4379
23.1592
22.8857
22.617
22.3533
22.0942
21.8399
21.5901
21.3447
21.1037
20.867
20.6344
20.406
20.1815
19.961
19.7444
19.5316
19.3224
19.1169
18.9149
18.7165
18.5214
18.3298
18.1414
17.9562
17.7742
17.5954
17.4195
17.2467
17.0768
16.9098
16.7457
16.5843
16.4257
16.2697
16.1164
15.9657
15.8175
15.6719
15.5287
15.3879
15.2495
15.1134
14.9796
14.8482
14.7189
14.5918
51.0118
50.1784
49.3633
48.5662
47.7866
47.0241
46.2783
45.5487
44.835
44.1366
43.4533
42.7846
42.1301
41.4896
40.8626
40.2488
39.6479
39.0595
38.4835
37.9193
37.3668
36.8257
36.2956
35.7764
35.2677
34.7693
34.281
33.8025
33.3335
32.8739
32.4233
31.9817
31.5488
31.1244
30.7082
30.3002
29.9001
29.5076
29.1228
28.7452
28.3749
28.0117
27.6553
27.3056
26.9625
26.6259
26.2955
25.9712
25.653
25.3407
25.034
24.733
24.4376
24.1474
23.8626
23.5829
23.3083
23.0385
22.7737
22.5135
22.258
22.007
21.7605
21.5183
21.2804
21.0467
20.817
20.5914
20.3697
20.1518
19.9378
19.7274
19.5207
19.3175
19.1178
18.9216
18.7287
18.5391
18.3528
18.1696
17.9895
17.8125
17.6386
17.4675
17.2994
17.1341
16.9716
16.8119
16.6548
16.5004
16.3487
16.1994
16.0527
15.9085
15.7667
15.6273
15.4903
15.3556
15.2232
53.02
52.1554
51.3097
50.4827
49.6738
48.8827
48.1088
47.3518
46.6111
45.8864
45.1773
44.4833
43.8041
43.1393
42.4885
41.8515
41.2278
40.6171
40.0191
39.4335
38.8599
38.2981
37.7479
37.2088
36.6807
36.1632
35.6562
35.1593
34.6723
34.1951
33.7273
33.2687
32.8191
32.3783
31.9461
31.5223
31.1067
30.6991
30.2994
29.9072
29.5226
29.1452
28.775
28.4118
28.0553
27.7056
27.3623
27.0254
26.6948
26.3703
26.0517
25.7389
25.4319
25.1304
24.8344
24.5437
24.2583
23.978
23.7027
23.4323
23.1668
22.9059
22.6497
22.398
22.1507
21.9077
21.669
21.4344
21.204
20.9775
20.7549
20.5362
20.3213
20.1101
19.9025
19.6985
19.4979
19.3008
19.107
18.9165
18.7293
18.5453
18.3644
18.1865
18.0117
17.8398
17.6708
17.5047
17.3413
17.1808
17.0229
16.8677
16.7151
16.5651
16.4176
16.2726
16.1301
15.99
15.8522
55.9245
55.0087
54.1132
53.2375
52.381
51.5434
50.724
49.9225
49.1384
48.3713
47.6206
46.8861
46.1672
45.4636
44.775
44.1008
43.4408
42.7946
42.1619
41.5423
40.9355
40.3412
39.7591
39.1889
38.6303
38.083
37.5467
37.0212
36.5063
36.0015
35.5069
35.0219
34.5466
34.0806
33.6236
33.1756
32.7362
32.3054
31.8828
31.4683
31.0618
30.6629
30.2717
29.8878
29.5111
29.1415
28.7788
28.4228
28.0734
27.7305
27.3939
27.0635
26.7391
26.4206
26.1079
25.8008
25.4993
25.2033
24.9125
24.6269
24.3464
24.0709
23.8002
23.5344
23.2732
23.0166
22.7645
22.5168
22.2734
22.0342
21.7992
21.5683
21.3413
21.1183
20.8991
20.6836
20.4718
20.2637
20.0591
19.858
19.6603
19.4659
19.2749
19.0871
18.9025
18.721
18.5425
18.3671
18.1946
18.0251
17.8584
17.6945
17.5334
17.3749
17.2192
17.0661
16.9155
16.7675
16.622
16.479
62.9933
61.9326
60.8959
59.8826
58.8921
57.9237
56.977
56.0512
55.1459
54.2605
53.3946
52.5475
51.7189
50.9082
50.115
49.3388
48.5793
47.8359
47.1083
46.3961
45.6989
45.0164
44.348
43.6936
43.0528
42.4251
41.8104
41.2083
40.6184
40.0405
39.4743
38.9195
38.3758
37.843
37.3207
36.8089
36.3071
35.8152
35.3329
34.8601
34.3964
33.9417
33.4958
33.0584
32.6294
32.2086
31.7957
31.3907
30.9933
30.6034
30.2207
29.8452
29.4767
29.115
28.7599
28.4114
28.0693
27.7334
27.4036
27.0797
26.7618
26.4495
26.1429
25.8418
25.546
25.2555
24.9701
24.6898
24.4144
24.1438
23.878
23.6169
23.3603
23.1082
22.8604
22.6169
22.3777
22.1425
21.9114
21.6843
21.4611
21.2416
21.0259
20.8139
20.6055
20.4007
20.1993
20.0013
19.8067
19.6154
19.4272
19.2423
19.0605
18.8817
18.706
18.5332
18.3633
18.1963
18.0321
17.8707
17.7119
17.5559
17.4024
17.2516
17.1034
65.1323
64.0379
62.9683
61.9227
60.9006
59.9013
58.9242
57.9688
57.0345
56.1207
55.2269
54.3526
53.4972
52.6604
51.8416
51.0404
50.2562
49.4888
48.7376
48.0023
47.2824
46.5777
45.8876
45.2118
44.55
43.9019
43.267
42.6451
42.0359
41.439
40.8541
40.2811
39.7195
39.1691
38.6296
38.1008
37.5824
37.0742
36.5759
36.0873
35.6082
35.1384
34.6776
34.2256
33.7823
33.3474
32.9207
32.5021
32.0914
31.6884
31.2929
30.9047
30.5238
30.1499
29.7828
29.4225
29.0688
28.7215
28.3806
28.0458
27.717
27.3941
27.0771
26.7657
26.4598
26.1594
25.8643
25.5744
25.2896
25.0098
24.7349
24.4648
24.1994
23.9386
23.6823
23.4304
23.1829
22.9397
22.7006
22.4656
22.2347
22.0077
21.7845
21.5652
21.3496
21.1376
20.9292
20.7244
20.523
20.325
20.1304
19.939
19.7508
19.5658
19.384
19.2052
19.0293
18.8565
18.6865
18.5195
18.3552
18.1936
18.0348
17.8787
17.7252
67.2458
66.1184
65.0165
63.9393
62.8862
61.8566
60.8498
59.8653
58.9025
57.9608
57.0397
56.1387
55.2571
54.3946
53.5507
52.7248
51.9165
51.1254
50.3511
49.593
48.8509
48.1243
47.4128
46.716
46.0336
45.3653
44.7106
44.0693
43.441
42.8254
42.2223
41.6312
41.052
40.4842
39.9278
39.3823
38.8475
38.3232
37.8092
37.3051
36.8108
36.3261
35.8506
35.3842
34.9268
34.478
34.0377
33.6057
33.1818
32.7659
32.3577
31.957
31.5638
31.1779
30.799
30.4271
30.0619
29.7034
29.3514
29.0057
28.6663
28.333
28.0056
27.6841
27.3682
27.058
26.7533
26.4539
26.1598
25.8708
25.5869
25.3079
25.0338
24.7644
24.4997
24.2396
23.9839
23.7327
23.4857
23.243
23.0044
22.7699
22.5393
22.3127
22.0899
21.8709
21.6556
21.444
21.2359
21.0313
20.8302
20.6324
20.438
20.2468
20.0589
19.8741
19.6924
19.5138
19.3381
19.1655
69.3334
68.1735
67.0399
65.9318
64.8483
63.789
62.7531
61.7401
60.7494
59.7804
58.8325
57.9052
56.998
56.1103
55.2417
54.3916
53.5597
52.7454
51.9482
51.1679
50.4038
49.6557
48.9232
48.2058
47.5032
46.815
46.1409
45.4805
44.8335
44.1995
43.5783
42.9695
42.3729
41.7881
41.2149
40.653
40.1022
39.5621
39.0325
38.5132
38.0039
37.5044
37.0145
36.534
36.0626
35.6001
35.1464
34.7012
34.2643
33.8356
33.4149
33.0019
32.5966
32.1988
31.8082
31.4248
31.0484
30.6788
30.3159
29.9595
29.6095
29.2658
28.9283
28.5967
28.2711
27.9511
27.6369
27.3281
27.0248
26.7268
26.434
26.1462
25.8635
25.5857
25.3126
25.0443
24.7806
24.5214
24.2666
24.0162
23.77
23.5281
23.2902
23.0564
22.8266
22.6006
22.3784
22.16
21.9453
21.7342
21.5266
21.3226
21.1219
20.9246
20.7307
20.5399
20.3524
20.168
19.9867
19.8086
71.3941
70.2026
69.038
67.8995
66.7863
65.6979
64.6336
63.5927
62.5746
61.5788
60.6047
59.6517
58.7193
57.807
56.9142
56.0404
55.1852
54.3481
53.5286
52.7263
51.9408
51.1717
50.4185
49.6808
48.9584
48.2507
47.5574
46.8783
46.2128
45.5608
44.9219
44.2957
43.682
43.0805
42.4908
41.9128
41.346
40.7904
40.2455
39.7112
39.1871
38.6732
38.1691
37.6745
37.1894
36.7135
36.2465
35.7883
35.3386
34.8973
34.4643
34.0392
33.622
33.2124
32.8103
32.4156
32.028
31.6475
31.2738
30.9069
30.5465
30.1926
29.8449
29.5035
29.1681
28.8386
28.515
28.197
27.8845
27.5776
27.276
26.9796
26.6883
26.4021
26.1208
25.8444
25.5727
25.3056
25.0431
24.7851
24.5315
24.2822
24.0371
23.7961
23.5593
23.3264
23.0975
22.8724
22.6511
22.4335
22.2196
22.0093
21.8025
21.5991
21.3992
21.2026
21.0093
20.8192
20.6323
20.4486
73.4274
72.2049
71.01
69.8418
68.6996
67.5828
66.4906
65.4224
64.3776
63.3556
62.3558
61.3777
60.4206
59.4841
58.5676
57.6706
56.7926
55.9331
55.0918
54.268
53.4615
52.6717
51.8982
51.1407
50.3987
49.6719
48.9599
48.2623
47.5788
46.909
46.2527
45.6094
44.979
44.361
43.7551
43.1612
42.5789
42.0079
41.448
40.8989
40.3603
39.8321
39.314
38.8057
38.3071
37.8179
37.3378
36.8668
36.4046
35.9509
35.5057
35.0686
34.6397
34.2185
33.8051
33.3992
33.0007
32.6093
32.225
31.8476
31.477
31.113
30.7554
30.4042
30.0592
29.7203
29.3874
29.0602
28.7388
28.423
28.1127
27.8078
27.5081
27.2136
26.9241
26.6397
26.3601
26.0853
25.8152
25.5496
25.2886
25.032
24.7798
24.5318
24.288
24.0483
23.8127
23.581
23.3532
23.1292
22.909
22.6925
22.4796
22.2702
22.0644
21.862
21.663
21.4673
21.2748
21.0855
75.4324
74.1798
72.9553
71.7582
70.5876
69.443
68.3235
67.2287
66.1578
65.1102
64.0853
63.0825
62.1013
61.1411
60.2014
59.2817
58.3814
57.5001
56.6373
55.7926
54.9654
54.1553
53.362
52.585
51.8239
51.0784
50.3479
49.6323
48.931
48.2439
47.5704
46.9104
46.2634
45.6292
45.0075
44.398
43.8003
43.2143
42.6396
42.076
41.5232
40.981
40.4491
39.9273
39.4154
38.9131
38.4202
37.9365
37.4619
36.9961
36.5388
36.09
35.6495
35.217
34.7923
34.3754
33.9661
33.5641
33.1693
32.7817
32.4009
32.0269
31.6596
31.2988
30.9443
30.5961
30.2539
29.9178
29.5875
29.263
28.9441
28.6307
28.3227
28.02
27.7225
27.4301
27.1428
26.8603
26.5826
26.3096
26.0413
25.7775
25.5182
25.2633
25.0126
24.7662
24.5239
24.2857
24.0514
23.8211
23.5947
23.372
23.1531
22.9378
22.7261
22.5179
22.3133
22.112
21.9141
21.7194
77.4085
76.1266
74.8733
73.6479
72.4497
71.2779
70.132
69.0111
67.9146
66.842
65.7926
64.7658
63.761
62.7777
61.8154
60.8734
59.9513
59.0486
58.1649
57.2995
56.4521
55.6223
54.8095
54.0134
53.2336
52.4697
51.7212
50.9878
50.2692
49.5649
48.8747
48.1982
47.5351
46.8851
46.2478
45.6229
45.0102
44.4094
43.8202
43.2423
42.6755
42.1195
41.5741
41.039
40.514
39.9988
39.4933
38.9973
38.5104
38.0326
37.5636
37.1032
36.6512
36.2075
35.7719
35.3441
34.9241
34.5116
34.1066
33.7087
33.318
32.9342
32.5572
32.1869
31.8231
31.4657
31.1145
30.7695
30.4304
30.0973
29.7699
29.4482
29.132
28.8212
28.5158
28.2156
27.9205
27.6305
27.3453
27.065
26.7895
26.5186
26.2523
25.9904
25.733
25.4799
25.2311
24.9864
24.7458
24.5092
24.2766
24.0479
23.8229
23.6018
23.3843
23.1705
22.9602
22.7534
22.5501
22.3501
79.3552
78.0447
76.7634
75.5105
74.2853
73.0872
71.9153
70.769
69.6477
68.5506
67.4773
66.427
65.3993
64.3934
63.4089
62.4452
61.5018
60.5783
59.674
58.7885
57.9213
57.0721
56.2403
55.4256
54.6274
53.8455
53.0793
52.3286
51.5929
50.872
50.1653
49.4727
48.7938
48.1281
47.4755
46.8357
46.2082
45.5929
44.9894
44.3975
43.817
43.2475
42.6887
42.1406
41.6027
41.075
40.5571
40.0488
39.55
39.0603
38.5797
38.1079
37.6447
37.19
36.7435
36.3051
35.8746
35.4518
35.0365
34.6287
34.2282
33.8347
33.4482
33.0685
32.6955
32.329
31.969
31.6152
31.2675
30.9258
30.5901
30.2601
29.9358
29.6171
29.3039
28.9959
28.6932
28.3957
28.1032
27.8157
27.533
27.2551
26.9819
26.7132
26.4491
26.1894
25.9341
25.683
25.4361
25.1933
24.9546
24.7199
24.4891
24.2621
24.0389
23.8194
23.6036
23.3913
23.1827
22.9775
81.272
79.9336
78.625
77.3454
76.094
74.8701
73.673
72.502
71.3564
70.2356
69.1389
68.0658
67.0156
65.9877
64.9816
63.9967
63.0326
62.0886
61.1642
60.2591
59.3727
58.5045
57.6541
56.8211
56.005
55.2055
54.422
53.6544
52.902
52.1647
51.442
50.7335
50.039
49.3582
48.6906
48.036
47.3941
46.7645
46.1471
45.5415
44.9474
44.3646
43.7928
43.2319
42.6814
42.1412
41.6111
41.0909
40.5803
40.079
39.587
39.104
38.6298
38.1642
37.707
37.2581
36.8173
36.3843
35.9591
35.5415
35.1313
34.7283
34.3324
33.9435
33.5614
33.186
32.8171
32.4547
32.0985
31.7485
31.4045
31.0664
30.7342
30.4076
30.0866
29.771
29.4608
29.1559
28.8562
28.5615
28.2717
27.9869
27.7068
27.4315
27.1607
26.8945
26.6328
26.3754
26.1223
25.8734
25.6287
25.388
25.1513
24.9186
24.6898
24.4647
24.2434
24.0257
23.8117
23.6013
83.1583
81.7928
80.4577
79.152
77.8751
76.6262
75.4046
74.2096
73.0404
71.8964
70.7771
69.6816
68.6096
67.5602
66.5331
65.5276
64.5431
63.5792
62.6353
61.711
60.8058
59.9191
59.0506
58.1997
57.3661
56.5494
55.749
54.9648
54.1961
53.4428
52.7043
51.9804
51.2707
50.5749
49.8927
49.2236
48.5675
47.9241
47.2929
46.6739
46.0665
45.4707
44.8862
44.3126
43.7498
43.1975
42.6554
42.1234
41.6012
41.0886
40.5853
40.0913
39.6063
39.13
38.6624
38.2031
37.7521
37.3092
36.8741
36.4468
36.0271
35.6147
35.2097
34.8117
34.4207
34.0365
33.6589
33.288
32.9234
32.5651
32.213
31.8669
31.5268
31.1925
30.8638
30.5408
30.2232
29.911
29.604
29.3023
29.0056
28.7139
28.4271
28.1452
27.8679
27.5952
27.3271
27.0635
26.8043
26.5493
26.2987
26.0521
25.8097
25.5713
25.3368
25.1063
24.8795
24.6565
24.4372
24.2215
85.0136
83.6217
82.2608
80.9299
79.6283
78.3551
77.1097
75.8912
74.6991
73.5327
72.3912
71.2742
70.1808
69.1106
68.063
67.0373
66.0331
65.0498
64.0869
63.1439
62.2203
61.3156
60.4293
59.5611
58.7104
57.8768
57.06
56.2595
55.475
54.7059
53.9521
53.2131
52.4885
51.7781
51.0815
50.3984
49.7284
49.0713
48.4268
47.7945
47.1742