/*--------------------------------*- C++ -*----------------------------------*\
| =========                 |                                                 |
| \\      /  F ield         | OpenFOAM: The Open Source CFD Toolbox           |
|  \\    /   O peration     | Version:  2406                                  |
|   \\  /    A nd           | Website:  www.openfoam.com                      |
|    \\/     M anipulation  |                                                 |
\*---------------------------------------------------------------------------*/
FoamFile
{
    version     2.0;
    format      ascii;
    arch        "LSB;label=32;scalar=64";
    class       volScalarField;
    location    "4e-05/dielectric";
    object      voltExt;
}
// * * * * * * * * * * * * * * * * * * * * * * * * * * * * * * * * * * * * * //

dimensions      [1 2 -3 0 0 -1 0];

internalField   nonuniform List<scalar> 
3038
(
-240.5382982
-392.4199224
-700.5030506
-1161.521379
-1703.002354
-2239.390592
-2719.605701
-3119.902361
-3432.518847
-3661.827339
-3835.675131
-3996.357256
-4159.683972
-4318.188535
-240.2158187
-392.0826185
-700.4766533
-1162.628942
-1706.505188
-2247.130935
-2734.238273
-3144.670261
-3470.241045
-3713.542185
-3901.335069
-4078.018934
-4261.133897
-4441.662516
-239.8781045
-391.6950512
-700.3004491
-1163.403455
-1709.396016
-2253.809707
-2747.11496
-3166.801241
-3504.545412
-3761.547265
-3963.638413
-4157.582319
-4363.42917
-4571.05723
-239.525161
-391.2571649
-699.9739821
-1163.842899
-1711.66703
-2259.397917
-2758.138721
-3186.022077
-3534.819727
-3804.77783
-4021.088897
-4233.260087
-4465.141117
-4707.091092
-239.1569973
-390.7689211
-699.4968607
-1163.945466
-1713.311325
-2263.870056
-2767.222878
-3202.078857
-3560.453781
-3842.06463
-4071.848862
-4302.502266
-4563.560785
-4849.81686
-238.7736254
-390.2302996
-698.8687611
-1163.709575
-1714.322963
-2267.204543
-2774.293679
-3214.748537
-3580.87552
-3872.200036
-4113.780574
-4361.818173
-4653.750394
-4996.812668
-238.3750612
-389.6412981
-698.0894277
-1163.133877
-1714.697024
-2269.384078
-2779.29245
-3223.849744
-3595.59281
-3894.047885
-4144.616833
-4406.800114
-4727.241443
-5137.747456
-4454.528297
-4563.443262
-4649.466125
-4714.656597
-4762.396491
-4795.880652
-4817.618873
-4829.398336
-4832.388309
-4827.254641
-4814.242546
-4793.219674
-4763.679865
-4724.707099
-4674.895395
-4612.216725
-4533.82937
-4435.833774
-4313.038374
-4158.949411
-3966.515072
-3730.526188
-4596.672889
-4716.413057
-4806.953811
-4872.886293
-4919.701428
-4951.86622
-4972.554057
-4983.872115
-4987.138967
-4983.093744
-4972.026596
-4953.844015
-4928.080577
-4893.860419
-4849.802121
-4793.849997
-4723.00417
-4632.91952
-4517.382379
-4367.853852
-4173.819925
-3925.83727
-4749.83241
-4880.916494
-4974.1619
-5038.66846
-5082.793601
-5112.385316
-5131.190469
-5141.526277
-5144.778003
-5141.706586
-5132.621337
-5117.462958
-5095.821975
-5066.900256
-5029.407601
-4981.367311
-4919.779807
-4840.061163
-4735.156038
-4594.342075
-4402.439661
-4142.544101
-4918.467382
-5060.367516
-5152.722423
-5212.503186
-5251.627759
-5277.165944
-5293.172958
-5301.979231
-5304.915163
-5302.695312
-5295.615371
-5283.642974
-5266.439796
-5243.326287
-5213.180289
-5174.23699
-5123.718944
-5057.1539
-4967.11723
-4841.01533
-4657.92352
-4388.004422
-5110.570699
-5259.391178
-5344.149805
-5394.498127
-5425.829425
-5445.71194
-5458.000102
-5464.751207
-5467.089004
-5465.60387
-5460.542018
-5451.889284
-5439.392416
-5422.530507
-5400.428468
-5371.679556
-5333.997987
-5283.520051
-5213.327612
-5110.205164
-4947.712755
-4675.287762
-5341.990505
-5483.72598
-5549.171761
-5584.006359
-5604.554543
-5617.258586
-5625.015053
-5629.26696
-5630.773321
-5629.925592
-5626.887405
-5621.654382
-5614.069635
-5603.805079
-5590.302814
-5572.651415
-5549.332889
-5517.675435
-5472.548711
-5402.8522
-5280.936546
-5030.190033
-5647.293093
-5738.202987
-5766.288423
-5779.159434
-5786.379245
-5790.760397
-5793.415001
-5794.867777
-5795.387993
-5795.112985
-5794.100167
-5792.34883
-5789.805819
-5786.359038
-5781.816649
-5775.862523
-5767.962672
-5757.152703
-5741.477529
-5716.131277
-5665.061792
-5509.067265
-3455.11438
-3151.623578
-2827.530281
-2490.004346
-2141.747091
-1781.312377
-1403.480335
-1000.026397
-567.8211028
-3627.058308
-3296.385445
-2947.219421
-2589.887958
-2228.52933
-1863.171747
-1491.953306
-1114.727051
-743.7987763
-3813.569851
-3448.789525
-3070.282804
-2691.43559
-2316.963985
-1947.453095
-1582.909077
-1226.825049
-893.5379337
-4016.406283
-3606.866074
-3193.486875
-2791.174872
-2403.348456
-2029.681719
-1670.368518
-1329.501848
-1019.003984
-4236.64818
-3766.528812
-3312.117092
-2884.927667
-2483.881137
-2105.978478
-1750.204552
-1419.628145
-1122.888872
-4471.93642
-3919.699923
-3419.497101
-2967.876445
-2554.849271
-2173.130298
-1819.627428
-1495.770756
-1207.331324
-4707.330338
-4051.367305
-3506.799627
-3034.875677
-2612.878591
-2228.621195
-1876.798387
-1557.276408
-1273.791454
-184.4279384
-101.4988395
-70.25538672
-53.09698593
-41.90904086
-34.02061562
-28.21748678
-23.82860182
-20.43922148
-17.77559394
-15.64951907
-13.92807851
-12.51556425
-11.3420121
-10.35562042
-9.517594521
-8.798570236
-8.176096345
-7.632841317
-7.155302678
-6.732870347
-6.35714281
-6.021425135
-5.720358487
-5.449646676
-5.205856756
-4.9862774
-4.788823238
-4.61197854
-4.45477906
-4.316834941
-4.19840127
-4.100509348
-4.025183462
-3.975786922
-3.957574434
-3.978597965
-4.051278337
-4.195384954
-4.4444467
-4.862182445
-5.596088058
-7.115125037
-11.65567339
-432.867815
-284.0754525
-205.2011495
-156.9320351
-124.4234943
-101.2379602
-84.09370595
-71.09091346
-61.03093049
-53.11440446
-46.78869479
-41.66218653
-37.45228604
-33.95209602
-31.00824851
-28.50577244
-26.35756995
-24.49699587
-22.87256555
-21.44414162
-20.18016405
-19.05562659
-18.05059083
-17.14908833
-16.33830929
-15.60801084
-14.95009677
-14.35833326
-13.82818029
-13.35673608
-12.94280319
-12.58709507
-12.29262004
-12.06531435
-11.91504983
-11.8572329
-11.91539862
-12.12563198
-12.54470761
-13.26671998
-14.46165439
-16.47808841
-20.15159827
-27.75418163
-615.8660657
-439.027368
-328.0548044
-254.5400991
-203.2544586
-166.0684313
-138.3336689
-117.1905529
-100.7757875
-87.82470754
-77.45408708
-69.03416157
-62.10861843
-56.34238516
-51.48650615
-47.35399178
-43.80294222
-40.72460928
-38.03486172
-35.66802173
-33.57237878
-31.70690901
-30.03886428
-28.54198708
-27.19518786
-25.9815798
-24.8877942
-23.90351534
-23.02120096
-22.23598564
-21.54578279
-20.95161264
-20.45821061
-20.07502712
-19.81781121
-19.71109648
-19.79215443
-20.11751739
-20.77439271
-21.90219906
-23.73661311
-26.70545416
-31.6357887
-40.0988705
-757.7922373
-567.9554719
-436.1088344
-343.3654575
-276.5146811
-227.1647325
-189.9692982
-161.4220437
-139.1521603
-121.5154845
-107.3487697
-95.81571357
-86.30691327
-78.3729981
-71.67896654
-65.97247809
-61.06154763
-56.79869596
-53.06958036
-49.7847551
-46.87365529
-44.28019207
-41.95951277
-39.87559349
-37.99944623
-36.3078108
-34.78222971
-33.40841586
-32.17586299
-31.07770175
-30.11082706
-29.27632571
-28.58026564
-28.03498643
-27.66113285
-27.49080412
-27.5724305
-27.97848011
-28.81808154
-30.25857146
-32.56342575
-36.15789438
-41.72439867
-50.23608915
-870.3583325
-673.9714978
-528.7130591
-421.9605785
-342.8602799
-283.458754
-238.1880072
-203.1733217
-175.697928
-153.8352533
-136.2028658
-121.7974532
-109.8829418
-99.91370396
-91.48121987
-84.27661102
-78.06406908
-72.66187587
-67.92873262
-63.75380259
-60.04940695
-56.74567186
-53.78659136
-51.12708341
-48.73077852
-46.56840859
-44.61667724
-42.85747987
-41.27740316
-39.86752366
-38.62354898
-37.54632104
-36.64273099
-35.92720499
-35.42404023
-35.17097504
-35.22455185
-35.66818415
-36.62440738
-38.27349181
-40.88075052
-44.83108582
-50.64928554
-58.91802216
-959.6209498
-759.7866519
-606.1035758
-489.6303429
-401.4229264
-334.1697419
-282.3545821
-241.9458566
-210.026136
-184.4836564
-163.782001
-146.7950521
-132.6904054
-120.8472498
-110.7983503
-102.1887884
-94.74643149
-88.26072367
-82.5673442
-77.53695119
-73.06686679
-69.07498777
-65.49531805
-62.27459112
-59.36969255
-56.74579275
-54.37506466
-52.23578391
-50.31170969
-48.59180886
-47.07040316
-45.74772852
-44.63091299
-43.73554746
-43.08817211
-42.73004543
-42.72263161
-43.15544315
-44.15706893
-45.90994708
-48.66758073
-52.76633704
-58.60600629
-66.54065637
-1028.867816
-827.3672349
-668.7923043
-546.1321431
-451.7064418
-378.7810687
-322.0143859
-277.364301
-241.8346136
-213.2193688
-189.8933759
-170.6537747
-154.6042765
-141.0718089
-129.5467236
-119.6397294
-111.0507489
-103.5464504
-96.94393842
-91.09865106
-85.89531734
-81.24136979
-77.0621567
-73.29724553
-69.89751456
-66.82307936
-64.04193777
-61.52899034
-59.26527772
-57.23759902
-55.43866927
-53.86773254
-52.53153383
-51.44584744
-50.63796849
-50.15050716
-50.0467459
-50.417928
-51.39285299
-53.14935703
-55.92452312
-60.01369063
-65.73490898
-73.3227472
-34.56398215
-59.55971013
-81.07058965
-99.3138417
-114.9373886
-128.4684589
-140.2932625
-150.6946424
-159.8849579
-168.0285485
-175.2563042
-181.6751004
-187.3740178
-192.4285527
-196.9035534
-200.8553267
-204.3331966
-207.3806867
-210.0364379
-212.3349338
-214.3070862
-215.9807128
-217.3809333
-218.5305011
-219.4500837
-220.1585013
-220.6729307
-221.0090807
-221.181344
-221.2029296
-221.0859795
-220.8416705
-220.480305
-220.0113904
-219.4437103
-218.7853865
-218.043936
-217.2263214
-216.3389968
-215.3879493
-214.378736
-213.316518
-212.2060901
-211.0519087
-209.8581166
-208.6285661
-207.3668402
-206.076272
-204.759963
-203.4207987
-202.0614643
-200.6844576
-199.2921017
-197.8865572
-196.4698324
-195.043794
-193.6101768
-192.1705921
-190.7265364
-189.279399
-187.8304688
-186.3809409
-184.9319227
-183.4844396
-182.0394399
-180.5977999
-179.1603288
-177.7277724
-176.3008181
-174.8800979
-173.4661923
-172.0596343
-170.6609113
-169.2704691
-167.8887145
-166.5160173
-165.1527133
-163.7991062
-162.4554697
-161.1220496
-159.7990654
-158.486712
-157.1851615
-155.8945643
-154.615051
-153.3467332
-152.0897054
-150.8440458
-149.6098174
-148.3870694
-147.1758379
-145.976147
-144.7880097
-143.6114286
-142.4463966
-141.2928978
-140.150908
-139.0203956
-137.9013215
-136.7936404
-135.6973009
-134.6122461
-133.5384138
-132.4757373
-131.4241454
-130.3835632
-129.353912
-128.33511
-127.3270723
-126.3297115
-125.3429376
-124.3666586
-123.4007807
-122.4452083
-121.4998442
-120.5645901
-119.6393466
-118.7240135
-117.8184895
-116.922673
-116.0364617
-115.1597532
-114.2924445
-113.4344329
-112.5856154
-111.7458891
-110.9151513
-110.0932995
-109.2802315
-108.4758456
-107.6800405
-106.8927151
-106.1137693
-105.3431033
-104.580618
-103.826215
-103.0797967
-102.3412661
-101.610527
-100.8874842
-100.172043
-99.46410974
-98.76359169
-98.07039684
-97.38443421
-96.70561366
-96.03384598
-95.36904294
-94.71111722
-94.05998243
-93.41555322
-92.77774512
-92.14647468
-91.52165941
-90.90321784
-90.29106942
-89.68513462
-89.08533493
-88.49159279
-87.90383163
-87.32197592
-86.74595107
-86.1756835
-85.61110064
-85.05213084
-84.49870344
-83.95074877
-83.40819804
-82.87098342
-82.339038
-81.8122957
-81.29069135
-80.77416061
-80.26263997
-79.7560667
-79.25437891
-78.75751542
-78.26541587
-77.77802065
-77.2952709
-76.81710854
-76.34347628
-75.87431758
-75.4095767
-74.94919871
-74.49312946
-74.04131561
-73.59370464
-73.15024478
-72.71088503
-72.2755752
-71.84426577
-71.41690797
-70.9934537
-70.57385554
-70.15806671
-69.7460411
-69.33773321
-68.93309816
-68.53209174
-68.13467031
-67.74079088
-67.35041107
-66.96348909
-66.57998374
-66.19985442
-65.82306104
-65.44956407
-65.0793245
-64.71230381
-64.34846399
-63.98776753
-63.6301774
-63.27565707
-62.92417053
-62.57568226
-62.23015726
-61.88756104
-61.54785964
-61.21101963
-60.8770081
-60.54579272
-60.21734171
-59.89162392
-59.56860884
-59.24826663
-58.93056812
-58.6154848
-58.30298878
-57.99305262
-57.68564928
-57.38075183
-57.0783333
-56.77836649
-56.48082376
-56.18567706
-55.89289795
-55.6024578
-55.31432821
-55.02848148
-54.74489107
-54.46353207
-54.18438143
-53.90741792
-53.63262168
-53.35997347
-53.08945369
-52.82104131
-52.55471324
-52.290444
-52.02820632
-51.76797226
-51.50971483
-51.25340963
-50.99903598
-50.7465771
-50.49601921
-50.24734978
-50.00055529
-49.75561953
-49.51252294
-49.27124334
-49.0317577
-48.79404443
-48.55808477
-48.32386301
-48.0913651
-47.86057649
-47.63148031
-47.40405691
-47.17828508
-46.95414454
-46.73161823
-46.51069342
-46.29136071
-46.07361171
-45.85743618
-45.64282037
-45.42974706
-45.21819704
-45.0081509
-44.79959016
-44.59249751
-44.38685636
-44.18265052
-43.9798643
-43.77848294
-43.57849301
-43.37988247
-43.18264005
-42.98675432
-42.79221315
-42.59900413
-42.40711586
-42.2165388
-42.02726538
-41.83928876
-41.6526013
-41.46719422
-41.28305345
-41.10015094
-40.91844295
-40.73787284
-40.55837165
-40.37986844
-40.20234576
-40.01646479
-39.81231532
-39.58831787
-39.34302174
-39.07484422
-38.78211593
-38.4629246
-38.11522437
-37.73666317
-37.32474966
-36.87690872
-36.39064836
-35.86348875
-35.29326868
-34.67793931
-34.01571082
-33.30512386
-32.54487264
-31.73415577
-30.87246021
-29.95981576
-28.9969972
-27.98524239
-26.92704315
-25.82554567
-24.68522415
-23.5117491
-22.31212705
-21.09486161
-19.87029489
-18.65033523
-17.44953779
-16.28451612
-15.17555856
-14.14638781
-13.22635434
-12.45129967
-11.86725386
-11.53417459
-44.94176238
-65.05429609
-83.99792533
-100.9041376
-115.811399
-128.9513138
-140.5622588
-150.8493888
-159.9823925
-168.1013516
-175.3230215
-181.7459119
-187.4541164
-192.520162
-197.0071499
-200.9703865
-204.4586525
-207.5152075
-210.1785977
-212.4833126
-214.4603278
-216.1375558
-217.5402248
-218.6912014
-219.6112646
-220.3193411
-220.8327072
-221.1671625
-221.3371821
-221.3560487
-221.2359697
-220.9881811
-220.6230387
-220.150098
-219.5781851
-218.9154601
-218.1694727
-217.3472146
-216.4551652
-215.4993343
-214.4852994
-213.41824
-212.3029673
-211.1439521
-209.9453495
-208.7110225
-207.444563
-206.1493124
-204.8283789
-203.4846545
-202.12083
-200.7394077
-199.3427148
-197.9329147
-196.5120182
-195.0818935
-193.6442768
-192.2007803
-190.7529015
-189.3020301
-187.8494555
-186.3963729
-184.9438894
-183.4930298
-182.0447415
-180.5998999
-179.1593128
-177.7237249
-176.2938221
-174.8702353
-173.4535439
-172.0442793
-170.6429281
-169.2499348
-167.865705
-166.4906073
-165.1249761
-163.769114
-162.4232932
-161.0877581
-159.7627266
-158.4483921
-157.144925
-155.8524742
-154.5711686
-153.3011182
-152.0424159
-150.7951383
-149.559347
-148.3350897
-147.1224012
-145.9213043
-144.7318106
-143.5539216
-142.3876291
-141.2329159
-140.0897569
-138.9581191
-137.8379626
-136.7292408
-135.6319013
-134.5458861
-133.4711319
-132.407571
-131.3551311
-130.3137362
-129.2833068
-128.2637597
-127.2550094
-126.2569673
-125.2695425
-124.2926422
-123.3261715
-122.3700339
-121.4241316
-120.4883654
-119.562635
-118.6468395
-117.7408768
-116.8446445
-115.9580399
-115.0809595
-114.2133
-113.3549578
-112.5058294
-111.6658113
-110.8348001
-110.0126929
-109.1993868
-108.3947797
-107.5987695
-106.811255
-106.0321353
-105.2613103
-104.4986803
-103.7441466
-102.9976111
-102.2589763
-101.5281457
-100.8050235
-100.0895148
-99.38152553
-98.68096251
-97.98773343
-97.3017469
-96.62291245
-95.95114053
-95.28634256
-94.6284309
-93.97731884
-93.33292071
-92.69515175
-92.06392817
-91.43916722
-90.82078712
-90.20870706
-89.60284721
-89.0031288
-88.40947401
-87.82180601
-87.24004903
-86.66412826
-86.09396988
-85.52950111
-84.97065013
-84.41734609
-83.86951915
-83.32710039
-82.79002185
-82.2582165
-81.73161818
-81.21016163
-80.69378245
-80.18241703
-79.67600261
-79.17447719
-78.67777955
-78.18584921
-77.69862647
-77.21605235
-76.73806863
-76.26461786
-75.79564334
-75.33108916
-74.87090024
-74.41502224
-73.96340168
-73.51598587
-73.07272294
-72.63356179
-72.19845211
-71.76734433
-71.34018959
-70.91693976
-70.49754734
-70.08196549
-69.67014805
-69.26204942
-68.85762467
-68.45682949
-68.05962017
-67.66595363
-67.27578743
-66.88907972
-66.50578925
-66.12587538
-65.74929798
-65.3760175
-65.00599488
-64.63919158
-64.2755695
-63.91509111
-63.5577193
-63.20341749
-62.85214963
-62.50388018
-62.15857415
-61.81619708
-61.47671508
-61.14009478
-60.80630336
-60.47530857
-60.1470787
-59.8215826
-59.49878972
-59.17867013
-58.86119447
-58.54633402
-58.23406059
-57.92434644
-57.6171642
-57.31248669
-57.01028673
-56.71053705
-56.41321009
-56.11827802
-55.8257128
-55.53548634
-55.2475708
-54.96193899
-54.6785647
-54.39742309
-54.11849084
-53.84174603
-53.56716784
-53.29473598
-53.02442987
-52.75622794
-52.49010716
-52.22604286
-51.96400913
-51.70397976
-51.44592937
-51.18983455
-50.93567471
-50.68343211
-50.43309124
-50.18463756
-49.93805593
-49.69332946
-49.45043904
-49.2093638
-48.97008236
-48.73257427
-48.49682098
-48.26280593
-48.03051375
-47.79992877
-47.57103397
-47.3438107
-47.11823948
-46.89430156
-46.6719805
-46.45126271
-46.23213689
-46.01459243
-45.79861758
-45.58419824
-45.37131797
-45.15995882
-44.95010247
-44.74173108
-44.53482758
-44.32937553
-44.12535899
-43.9227626
-43.72157187
-43.52177334
-43.32335463
-43.12630404
-42.93060999
-42.73626081
-42.5432451
-42.3515526
-42.16117502
-41.97210636
-41.78434249
-41.59787993
-41.4127137
-41.22883172
-41.04620632
-40.86478776
-40.68449958
-40.50524424
-40.32694334
-40.14954645
-39.96363117
-39.75945743
-39.53540764
-39.29012611
-39.02207973
-38.7296161
-38.41085294
-38.06369472
-37.68575187
-37.27447656
-36.82725819
-36.34157356
-35.81497356
-35.24530229
-34.63055246
-33.96896474
-33.2590882
-32.49963763
-31.68980524
-30.82907896
-29.91748344
-28.95578704
-27.94522604
-26.8882909
-25.7881137
-24.64918781
-23.4771462
-22.27902178
-21.06328126
-19.84026852
-18.62187382
-17.42262798
-16.25912876
-15.15163105
-14.12382645
-13.20502334
-12.43101142
-11.84775483
-11.51512899
-54.21878223
-71.00170405
-87.71452522
-103.2687563
-117.3699798
-130.026361
-141.3439389
-151.4510531
-160.4724534
-168.5215304
-175.6989365
-182.0933314
-187.782716
-192.8358187
-197.3133606
-201.2691559
-204.7510528
-207.8017341
-210.4593962
-212.7583248
-214.7293846
-216.4004356
-217.7966902
-218.9410216
-219.8542293
-220.5552682
-221.0614466
-221.3885965
-221.5512238
-221.5626391
-221.4350759
-221.1797937
-220.8071704
-220.3267822
-219.7474737
-219.0774208
-218.3241867
-217.4947736
-216.5956702
-215.632894
-214.6120302
-213.5382647
-212.4164147
-211.2509555
-210.0460457
-208.8055504
-207.5330629
-206.2319255
-204.9052473
-203.5559208
-202.1866369
-200.7998979
-199.3980303
-197.9831964
-196.5574048
-195.1225221
-193.680282
-192.2322946
-190.7800551
-189.3249513
-187.8682702
-186.411205
-184.9548603
-183.5002583
-182.0483436
-180.5999886
-179.1559983
-177.7171145
-176.2840203
-174.8573439
-173.4376621
-172.025504
-170.6213538
-169.2256538
-167.8388074
-166.4611811
-165.0931073
-163.7348863
-162.3867882
-161.0490552
-159.7219031
-158.4055232
-157.1000835
-155.8057308
-154.5225918
-153.2507746
-151.9903697
-150.741452
-149.504081
-148.2783027
-147.0641501
-145.8616443
-144.6707955
-143.4916035
-142.3240588
-141.1681428
-140.0238289
-138.891083
-137.7698637
-136.6601233
-135.561808
-134.4748585
-133.3992104
-132.3347947
-131.281538
-130.2393631
-129.208189
-128.187932
-127.1785049
-126.1798183
-125.1917803
-124.214297
-123.2472725
-122.2906094
-121.344209
-120.407971
-119.4817946
-118.5655776
-117.6592175
-116.762611
-115.8756545
-114.998244
-114.1302753
-113.2716442
-112.4222465
-111.5819781
-110.750735
-109.9284136
-109.1149106
-108.3101232
-107.5139488
-106.7262857
-105.9470324
-105.1760884
-104.4133535
-103.6587285
-102.9121149
-102.1734147
-101.4425311
-100.7193677
-100.0038294
-99.29582161
-98.59525077
-97.90202421
-97.21605019
-96.53723787
-95.86549736
-95.20073975
-94.54287705
-93.89182224
-93.24748932
-92.60979322
-91.97864987
-91.35397619
-90.73569014
-90.1237106
-89.51795747
-88.91835172
-88.32481526
-87.73727101
-87.15564295
-86.57985604
-86.00983625
-85.44551058
-84.88680703
-84.33365457
-83.78598321
-83.2437239
-82.70680855
-82.17517003
-81.64874211
-81.12745943
-80.61125753
-80.10007277
-79.59384229
-79.09250406
-78.59599676
-78.10425984
-77.61723348
-77.1348586
-76.65707681
-76.18383052
-75.71506288
-75.25071778
-74.79073996
-74.33507495
-73.88366907
-73.43646953
-72.99342431
-72.55448221
-72.11959286
-71.68870661
-71.26177455
-70.83874849
-70.41958089
-70.00422486
-69.59263416
-69.18476314
-68.78056676
-68.38000065
-67.98302102
-67.58958471
-67.19964922
-66.81317264
-66.43011368
-66.05043166
-65.67408645
-65.30103844
-64.93124856
-64.56467821
-64.20128928
-63.84104414
-63.48390565
-63.12983715
-62.77880255
-62.4307663
-62.08569339
-61.7435494
-61.40430051
-61.06791341
-60.73435538
-60.40359425
-60.07559835
-59.75033653
-59.42777822
-59.10789336
-58.79065244
-58.47602652
-58.16398716
-57.85450635
-57.54755648
-57.24311015
-56.94114005
-56.64161888
-56.34451916
-56.0498133
-55.75747356
-55.46747226
-55.17978199
-54.89437591
-54.61122806
-54.33031357
-54.05160885
-53.77509146
-53.50073987
-53.22853296
-52.95844952
-52.69046762
-52.42456434
-52.16071563
-51.89889665
-51.63908244
-51.38124877
-51.12537294
-50.87143439
-50.61941469
-50.36929709
-50.12106562
-49.87470401
-49.63019483
-49.38751924
-49.14665724
-48.90758851
-48.67029337
-48.43475343
-48.20095164
-47.9688718
-47.73849761
-47.50981199
-47.28279696
-47.05743415
-46.83370579
-46.61159578
-46.39108993
-46.17217565
-45.95484084
-45.73907264
-45.52485669
-45.31217695
-45.10101628
-44.89135715
-44.68318225
-44.47647479
-44.27121852
-44.06739772
-43.8649973
-43.66400289
-43.46440105
-43.26617921
-43.06932541
-42.87382804
-42.6796758
-42.48685796
-42.29536516
-42.10519027
-41.91632898
-41.72877996
-41.54254374
-41.35761917
-41.17399612
-40.99164579
-40.81051187
-40.63049868
-40.45146949
-40.2733412
-40.09611446
-39.91025274
-39.70611141
-39.48207483
-39.23685721
-38.968989
-38.67683214
-38.35851223
-38.01189357
-37.63454919
-37.22388545
-36.77726409
-36.29214174
-35.76609639
-35.19698198
-34.58282654
-33.92189727
-33.21275145
-32.45411922
-31.6451889
-30.78544772
-29.87491516
-28.91435576
-27.90500126
-26.84934417
-25.75050033
-24.61298338
-23.44238833
-22.24577446
-21.03157114
-19.81012447
-18.59330569
-17.39562202
-16.23365456
-15.12762526
-14.10119414
-13.18362772
-12.41066353
-11.82819982
-11.49602933
-62.49096473
-76.97648045
-91.88023242
-106.1965522
-119.4885807
-131.620347
-142.5948319
-152.4735959
-161.3394627
-169.2796664
-176.3784676
-182.7141578
-188.3581069
-193.3747534
-197.822012
-201.7518396
-205.2108417
-208.2408611
-210.8795214
-213.1607151
-215.1150344
-216.7701484
-218.1511346
-219.2807698
-220.1797852
-220.8670873
-221.3599502
-221.6741806
-221.8242639
-221.8234937
-221.6840886
-221.4172966
-221.0334867
-220.5422282
-219.9523602
-219.2720527
-218.5088621
-217.6697831
-216.7612969
-215.7894144
-214.7597146
-213.6773789
-212.5472195
-211.3737069
-210.160994
-208.9129394
-207.6331303
-206.3249027
-204.9913599
-203.6353894
-202.2596771
-200.8667206
-199.458841
-198.0381949
-196.6067853
-195.1664728
-193.7189852
-192.2659272
-190.808789
-189.3489535
-187.8877032
-186.4262267
-184.9656241
-183.5069127
-182.0510326
-180.5988514
-179.1511694
-177.7087238
-176.2721936
-174.8422027
-173.4193242
-172.0040835
-170.5969615
-169.1983971
-167.8087905
-166.4285053
-165.0578707
-163.6971843
-162.3467134
-161.0066971
-159.6773486
-158.3588562
-157.0513852
-155.7550797
-154.4700636
-153.1964424
-151.9343041
-150.6837211
-149.4447507
-148.2174365
-147.0018095
-145.7978889
-144.6056829
-143.4251896
-142.2563977
-141.0992871
-139.9538296
-138.8199894
-137.6977237
-136.5869834
-135.4877131
-134.3998522
-133.3233349
-132.2580908
-131.204045
-130.1611191
-129.129231
-128.1082954
-127.0982242
-126.0989266
-125.1103097
-124.1322784
-123.1647358
-122.2075834
-121.2607214
-120.3240488
-119.3974637
-118.4808631
-117.5741435
-116.6772009
-115.7899307
-114.9122284
-114.0439888
-113.1851072
-112.3354786
-111.4949981
-110.6635613
-109.8410638
-109.0274017
-108.2224717
-107.4261707
-106.6383962
-105.8590464
-105.0880202
-104.325217
-103.5705371
-102.8238813
-102.0851515
-101.3542502
-100.6310808
-99.91554761
-99.2075557
-98.50701114
-97.81382084
-97.12789273
-96.44913559
-95.77745918
-95.11277425
-94.45499248
-93.80402651
-93.15979003
-92.52219766
-91.89116502
-91.26660874
-90.64844646
-90.03659681
-89.4309794
-88.83151491
-88.238125
-87.65073234
-87.06926067
-86.49363471
-85.92378021
-85.35962397
-84.8010938
-84.2481185
-83.70062794
-83.15855293
-82.62182526
-82.09037774
-81.56414402
-81.04305871
-80.52705729
-80.01607606
-79.51005212
-79.00892338
-78.51262846
-78.02110672
-77.53429823
-77.05214379
-76.57458488
-76.10156373
-75.63302331
-75.16890735
-74.7091604
-74.25372782
-73.80255577
-73.35559131
-72.91278233
-72.47407752
-72.03942644
-71.60877938
-71.1820874
-70.75930228
-70.34037642
-69.92526288
-69.51391537
-69.10628816
-68.70233616
-68.30201488
-67.90528046
-67.51208966
-67.12239993
-66.7361693
-66.35335645
-65.97392069
-65.59782185
-65.22502031
-64.855477
-64.48915326
-64.12601094
-63.76601235
-63.40912027
-63.05529798
-62.70450934
-62.35671877
-62.01189125
-61.6699924
-61.33098845
-60.99484619
-60.661533
-60.33101676
-60.00326586
-59.67824917
-59.35593606
-59.03629636
-58.7193004
-58.40491905
-58.09312363
-57.7838859
-57.47717805
-57.17297251
-56.87124192
-56.57195895
-56.27509624
-55.98062639
-55.68852193
-55.3987555
-55.11129999
-54.82612881
-54.5432161
-54.26253698
-53.98406761
-53.70778512
-53.43366741
-53.16169283
-52.89183967
-52.62408584
-52.35840852
-52.09478418
-51.83318877
-51.57359828
-51.31598929
-51.06033961
-50.80662867
-50.55483755
-50.30494861
-50.05694486
-49.8108092
-49.56652383
-49.32407004
-49.08342837
-48.8445792
-48.60750337
-48.37218262
-48.13859961
-47.90673768
-47.67658014
-47.44810993
-47.22130953
-46.99616125
-46.77264799
-46.55075378
-46.33046405
-46.11176529
-45.89464437
-45.67908771
-45.46508064
-45.25260739
-45.04165131
-44.83219541
-44.62422281
-44.417717
-44.21266193
-44.00904207
-43.80684249
-43.60604896
-43.40664802
-43.208627
-43.01197383
-42.81667691
-42.62272519
-42.43010842
-42.23881793
-42.0488475
-41.86019431
-41.67285941
-41.48684655
-41.30215742
-41.11878215
-40.93668823
-40.75581363
-40.57605311
-40.39722844
-40.21921329
-40.0420966
-39.85630011
-39.6522299
-39.42829242
-39.18321715
-38.91558819
-38.62377751
-38.30590456
-37.95980245
-37.58301609
-37.17292161
-36.72686517
-36.24229282
-35.71680606
-35.14826831
-34.53473458
-33.8744925
-33.16610598
-32.40831556
-31.60030828
-30.74156972
-29.83211473
-28.8727071
-27.86457137
-26.81020583
-25.71270783
-24.57661276
-23.40747689
-22.21238626
-20.99973212
-19.77986343
-18.56463141
-17.36852032
-16.20809384
-15.1035415
-14.0784911
-13.16216767
-12.39025614
-11.80858897
-11.47687569
-69.92198785
-82.7890566
-96.27337329
-109.5210143
-122.0564978
-133.6624581
-144.2699592
-153.8882455
-162.5647474
-170.3634039
-177.3532437
-183.6025582
-189.1760883
-194.1338247
-198.5306553
-202.4164444
-205.8363269
-208.8310949
-211.4376101
-213.6892047
-215.6160523
-217.2455028
-218.6023859
-219.7092834
-220.5867721
-221.2536362
-221.7270513
-222.0227423
-222.1551239
-222.1374273
-221.9818161
-221.6994909
-221.300781
-220.7952224
-220.1916247
-219.4981304
-218.7222691
-217.8710093
-216.950808
-215.9676541
-214.9271082
-213.8343351
-212.6941321
-211.5109551
-210.288942
-209.031937
-207.7435125
-206.4269912
-205.0854644
-203.7218086
-202.3386999
-200.9386263
-199.523899
-198.0966649
-196.6589169
-195.2125056
-193.7591494
-192.3004445
-190.8378727
-189.3728097
-187.906531
-186.4402183
-184.9749651
-183.5117818
-182.0516019
-180.5952863
-179.1436288
-177.6973606
-176.2571546
-174.8236295
-173.397353
-171.9788459
-170.5685842
-169.1670029
-167.7744978
-166.3914287
-165.018121
-163.6548684
-162.3019346
-160.9595554
-159.6279403
-158.3072742
-156.9977191
-155.6994157
-154.4124847
-153.1370283
-151.8731317
-150.6208642
-149.3802805
-148.1514216
-146.934316
-145.7289805
-144.5354212
-143.3536341
-142.1836061
-141.0253149
-139.8787308
-138.7438161
-137.6205263
-136.5088106
-135.4086121
-134.3198685
-133.2425124
-132.1764719
-131.1216707
-130.0780289
-129.0454629
-128.0238861
-127.013209
-126.0133397
-125.0241838
-124.0456451
-123.0776256
-122.1200257
-121.1727445
-120.2356799
-119.308729
-118.3917879
-117.4847522
-116.5875169
-115.6999768
-114.8220262
-113.9535595
-113.094471
-112.2446549
-111.4040059
-110.5724186
-109.7497882
-108.9360101
-108.1309803
-107.3345951
-106.5467516
-105.7673474
-104.9962808
-104.2334507
-103.478757
-102.7320999
-101.993381
-101.2625022
-100.5393666
-99.82387788
-99.11594094
-98.41546134
-97.72234565
-97.03650139
-96.357837
-95.68626186
-95.0216864
-94.36402193
-93.7131808
-93.06907635
-92.43162289
-91.80073574
-91.17633123
-90.5583267
-89.94664049
-89.34119195
-88.74190146
-88.14869044
-87.56148129
-86.98019751
-86.40476358
-85.83510504
-85.2711485
-84.71282155
-84.16005286
-83.61277213
-83.07091006
-82.53439834
-82.00316968
-81.47715769
-80.95629691
-80.44052279
-79.92977159
-79.42398037
-78.92308699
-78.42703003
-77.93574874
-77.44918313
-76.96727383
-76.48996219
-76.01719028
-75.54890088
-75.08503753
-74.62554458
-74.17036722
-73.71945145
-73.27274419
-72.83019321
-72.39174712
-71.95735544
-71.5269684
-71.10053705
-70.67801311
-70.25934899
-69.8444977
-69.43341288
-69.02604875
-68.62236011
-68.2223024
-67.82583168
-67.43290463
-67.04347862
-66.65751166
-66.27496239
-65.8957901
-65.51995464
-65.14741639
-64.77813624
-64.41207553
-64.04919604
-63.68946001
-63.33283016
-62.97926968
-62.62874236
-62.28121257
-61.93664531
-61.59500622
-61.25626161
-60.92037836
-60.58732393
-60.25706632
-59.92957397
-59.60481575
-59.28276099
-58.9633794
-58.64664115
-58.3325169
-58.02097776
-57.71199531
-57.40554155
-57.10158882
-56.80010968
-56.50107688
-56.20446317
-55.91024131
-55.61838409
-55.32886436
-55.04165523
-54.75673026
-54.47406367
-54.19363045
-53.91540656
-53.63936879
-53.36549464
-53.09376203
-52.82414899
-52.5566333
-52.29119229
-52.02780286
-51.76644156
-51.50708506
-51.24971055
-50.99429617