/*--------------------------------*- C++ -*----------------------------------*\
  =========                 |
  \\      /  F ield         | OpenFOAM: The Open Source CFD Toolbox
   \\    /   O peration     | Website:  https://openfoam.org
    \\  /    A nd           | Version:  7
     \\/     M anipulation  |
\*---------------------------------------------------------------------------*/
FoamFile
{
    version     2.0;
    format      ascii;
    class       volVectorField;
    location    "0.1/air";
    object      qAir;
}
// * * * * * * * * * * * * * * * * * * * * * * * * * * * * * * * * * * * * * //

dimensions      [0 -1 0 1 0 0 0];

internalField   nonuniform List<vector> 
400
(
(-0.0216499 -0.0213849 -0)
(-0.0221831 -0.0646814 -0)
(-0.0232627 -0.109571 -0)
(-0.0249152 -0.157159 -0)
(-0.0271815 -0.208618 -0)
(-0.0301174 -0.265216 -0)
(-0.0337952 -0.328346 -0)
(-0.0383058 -0.399564 -0)
(-0.0437605 -0.480625 -0)
(-0.0502942 -0.573527 -0)
(-0.0580685 -0.680561 -0)
(-0.0672764 -0.804367 -0)
(-0.0781471 -0.948004 -0)
(-0.0909518 -1.11502 -0)
(-0.106012 -1.30956 -0)
(-0.123707 -1.53643 -0)
(-0.144487 -1.8013 -0)
(-0.168887 -2.11076 -0)
(-0.197545 -2.47259 -0)
(-0.231226 -2.89592 -0)
(-0.0644165 -0.0208583 -0)
(-0.066003 -0.0630885 -0)
(-0.0692151 -0.106873 -0)
(-0.074132 -0.153289 -0)
(-0.080875 -0.20348 -0)
(-0.0896102 -0.258684 -0)
(-0.100553 -0.320258 -0)
(-0.113973 -0.389722 -0)
(-0.130203 -0.468784 -0)
(-0.149642 -0.559395 -0)
(-0.172772 -0.663788 -0)
(-0.200167 -0.784537 -0)
(-0.232507 -0.924622 -0)
(-0.2706 -1.0875 -0)
(-0.3154 -1.27721 -0)
(-0.368035 -1.49845 -0)
(-0.429841 -1.7567 -0)
(-0.502404 -2.0584 -0)
(-0.587614 -2.41108 -0)
(-0.687732 -2.82363 -0)
(-0.105597 -0.019818 -0)
(-0.108197 -0.059942 -0)
(-0.113463 -0.101542 -0)
(-0.121523 -0.145643 -0)
(-0.132576 -0.193331 -0)
(-0.146895 -0.245781 -0)
(-0.164833 -0.304283 -0)
(-0.186832 -0.37028 -0)
(-0.213434 -0.445396 -0)
(-0.245298 -0.531482 -0)
(-0.28321 -0.630659 -0)
(-0.328111 -0.74537 -0)
(-0.381115 -0.878443 -0)
(-0.443542 -1.03316 -0)
(-0.516954 -1.21334 -0)
(-0.603192 -1.42344 -0)
(-0.704437 -1.66865 -0)
(-0.823274 -1.95504 -0)
(-0.962775 -2.28973 -0)
(-1.12661 -2.68103 -0)
(-0.144176 -0.0182897 -0)
(-0.147727 -0.0553194 -0)
(-0.154916 -0.0937115 -0)
(-0.165921 -0.134411 -0)
(-0.181012 -0.178421 -0)
(-0.200562 -0.226825 -0)
(-0.225052 -0.280815 -0)
(-0.255086 -0.341719 -0)
(-0.291405 -0.411038 -0)
(-0.334904 -0.490478 -0)
(-0.386659 -0.581994 -0)
(-0.447951 -0.687839 -0)
(-0.520299 -0.810619 -0)
(-0.605502 -0.953355 -0)
(-0.705681 -1.11956 -0)
(-0.823341 -1.31333 -0)
(-0.96144 -1.53942 -0)
(-1.12348 -1.8034 -0)
(-1.31361 -2.11174 -0)
(-1.53675 -2.47204 -0)
(-0.179206 -0.016311 -0)
(-0.183619 -0.0493347 -0)
(-0.192555 -0.0835733 -0)
(-0.206233 -0.11987 -0)
(-0.22499 -0.159118 -0)
(-0.249289 -0.202285 -0)
(-0.279727 -0.250432 -0)
(-0.317055 -0.304745 -0)
(-0.362193 -0.36656 -0)
(-0.416253 -0.437398 -0)
(-0.480571 -0.519001 -0)
(-0.556735 -0.613374 -0)
(-0.646631 -0.722837 -0)
(-0.752485 -0.850079 -0)
(-0.876926 -0.998219 -0)
(-1.02305 -1.17089 -0)
(-1.1945 -1.3723 -0)
(-1.3956 -1.60738 -0)
(-1.63142 -1.88182 -0)
(-1.90798 -2.20226 -0)
(-0.209822 -0.0139308 -0)
(-0.21499 -0.0421353 -0)
(-0.225452 -0.0713774 -0)
(-0.241466 -0.102377 -0)
(-0.263427 -0.135898 -0)
(-0.291876 -0.172764 -0)
(-0.327512 -0.213884 -0)
(-0.371214 -0.260269 -0)
(-0.424058 -0.313059 -0)
(-0.487345 -0.373553 -0)
(-0.562635 -0.443236 -0)
(-0.651788 -0.523819 -0)
(-0.757004 -0.617278 -0)
(-0.880884 -0.725904 -0)
(-1.02649 -0.85235 -0)
(-1.19742 -0.999699 -0)
(-1.39793 -1.17153 -0)
(-1.633 -1.37199 -0)
(-1.90849 -1.60589 -0)
(-2.23133 -1.87879 -0)
(-0.235272 -0.0112075 -0)
(-0.241066 -0.0338986 -0)
(-0.252797 -0.0574243 -0)
(-0.270753 -0.082364 -0)
(-0.295377 -0.109331 -0)
(-0.327275 -0.138991 -0)
(-0.367232 -0.172071 -0)
(-0.416231 -0.209387 -0)
(-0.475477 -0.251855 -0)
(-0.54643 -0.300518 -0)
(-0.630837 -0.35657 -0)
(-0.730777 -0.421386 -0)
(-0.848716 -0.496553 -0)
(-0.987558 -0.583908 -0)
(-1.15072 -0.685578 -0)
(-1.34223 -0.80403 -0)
(-1.56679 -0.942121 -0)
(-1.82996 -1.10316 -0)
(-2.13822 -1.29096 -0)
(-2.49918 -1.50992 -0)
(-0.254928 -0.00820842 -0)
(-0.261206 -0.0248274 -0)
(-0.273917 -0.0420576 -0)
(-0.293373 -0.0603234 -0)
(-0.320054 -0.0800743 -0)
(-0.354616 -0.101796 -0)
(-0.397909 -0.126024 -0)
(-0.450998 -0.153353 -0)
(-0.515189 -0.184455 -0)
(-0.59206 -0.220093 -0)
(-0.683504 -0.26114 -0)
(-0.791771 -0.308603 -0)
(-0.919526 -0.363641 -0)
(-1.06991 -0.427597 -0)
(-1.24661 -0.502025 -0)
(-1.45397 -0.588722 -0)
(-1.69706 -0.689767 -0)
(-1.98184 -0.807566 -0)
(-2.31525 -0.94488 -0)
(-2.70542 -1.10488 -0)
(-0.268308 -0.00500723 -0)
(-0.274915 -0.015145 -0)
(-0.288293 -0.0256557 -0)
(-0.30877 -0.036798 -0)
(-0.33685 -0.0488463 -0)
(-0.373225 -0.062097 -0)
(-0.418789 -0.0768762 -0)
(-0.474662 -0.0935471 -0)
(-0.542217 -0.112519 -0)
(-0.623116 -0.134258 -0)
(-0.719347 -0.159295 -0)
(-0.833278 -0.188244 -0)
(-0.96771 -0.221811 -0)
(-1.12594 -0.260815 -0)
(-1.31185 -0.306202 -0)
(-1.52997 -0.359063 -0)
(-1.78564 -0.420661 -0)
(-2.08508 -0.492456 -0)
(-2.43553 -0.576117 -0)
(-2.84545 -0.673554 -0)
(-0.275081 -0.00168279 -0)
(-0.281855 -0.00508983 -0)
(-0.29557 -0.00862221 -0)
(-0.316564 -0.0123669 -0)
(-0.345353 -0.0164162 -0)
(-0.382646 -0.0208696 -0)
(-0.429359 -0.0258369 -0)
(-0.486641 -0.03144 -0)
(-0.555899 -0.0378166 -0)
(-0.638836 -0.0451229 -0)
(-0.73749 -0.0535374 -0)
(-0.854287 -0.0632658 -0)
(-0.992097 -0.0745458 -0)
(-1.1543 -0.0876525 -0)
(-1.34486 -0.102904 -0)
(-1.56843 -0.120666 -0)
(-1.83045 -0.14136 -0)
(-2.13729 -0.165478 -0)
(-2.49635 -0.193577 -0)
(-2.91623 -0.226296 -0)
(-0.27508 0.00168306 -0)
(-0.281854 0.00509061 -0)
(-0.29557 0.00862342 -0)
(-0.316564 0.0123685 -0)
(-0.345353 0.0164179 -0)
(-0.382646 0.0208712 -0)
(-0.429359 0.025838 -0)
(-0.486641 0.0314403 -0)
(-0.5559 0.0378156 -0)
(-0.638836 0.0451207 -0)
(-0.73749 0.0535349 -0)
(-0.854286 0.0632643 -0)
(-0.992096 0.0745461 -0)
(-1.1543 0.0876539 -0)
(-1.34486 0.102904 -0)
(-1.56842 0.120666 -0)
(-1.83045 0.141363 -0)
(-2.13729 0.165481 -0)
(-2.49635 0.193581 -0)
(-2.91623 0.226301 -0)
(-0.268307 0.00500748 -0)
(-0.274914 0.0151457 -0)
(-0.288292 0.0256568 -0)
(-0.308769 0.0367994 -0)
(-0.33685 0.0488478 -0)
(-0.373225 0.0620984 -0)
(-0.41879 0.0768772 -0)
(-0.474663 0.0935472 -0)
(-0.542219 0.112518 -0)
(-0.623117 0.134256 -0)
(-0.719346 0.159293 -0)
(-0.833276 0.188243 -0)
(-0.967708 0.221812 -0)
(-1.12594 0.260817 -0)
(-1.31185 0.306202 -0)
(-1.52997 0.359063 -0)
(-1.78564 0.420663 -0)
(-2.08507 0.492458 -0)
(-2.43553 0.57612 -0)
(-2.84545 0.673559 -0)
(-0.254927 0.00820863 -0)
(-0.261205 0.024828 -0)
(-0.273916 0.0420585 -0)
(-0.293373 0.0603245 -0)
(-0.320054 0.0800755 -0)
(-0.354616 0.101798 -0)
(-0.39791 0.126025 -0)
(-0.451 0.153353 -0)
(-0.515191 0.184454 -0)
(-0.592062 0.220091 -0)
(-0.683503 0.261139 -0)
(-0.791767 0.308602 -0)
(-0.919522 0.363641 -0)
(-1.06991 0.427598 -0)
(-1.24661 0.502025 -0)
(-1.45396 0.588722 -0)
(-1.69706 0.689769 -0)
(-1.98184 0.807567 -0)
(-2.31525 0.944883 -0)
(-2.70541 1.10488 -0)
(-0.23527 0.0112077 -0)
(-0.241064 0.033899 -0)
(-0.252796 0.057425 -0)
(-0.270752 0.0823648 -0)
(-0.295377 0.109332 -0)
(-0.327276 0.138991 -0)
(-0.367234 0.172072 -0)
(-0.416234 0.209387 -0)
(-0.475481 0.251854 -0)
(-0.546432 0.300516 -0)
(-0.630836 0.356569 -0)
(-0.730773 0.421386 -0)
(-0.848711 0.496554 -0)
(-0.987558 0.583909 -0)
(-1.15072 0.685579 -0)
(-1.34222 0.80403 -0)
(-1.56679 0.942122 -0)
(-1.82996 1.10316 -0)
(-2.13822 1.29096 -0)
(-2.49917 1.50992 -0)
(-0.20982 0.0139309 -0)
(-0.214988 0.0421356 -0)
(-0.22545 0.0713778 -0)
(-0.241465 0.102377 -0)
(-0.263427 0.135898 -0)
(-0.291877 0.172764 -0)
(-0.327515 0.213884 -0)
(-0.371218 0.260268 -0)
(-0.424062 0.313058 -0)
(-0.487347 0.373552 -0)
(-0.562634 0.443235 -0)
(-0.651783 0.523818 -0)
(-0.756999 0.617279 -0)
(-0.880884 0.725904 -0)
(-1.02649 0.85235 -0)
(-1.19742 0.999699 -0)
(-1.39793 1.17153 -0)
(-1.63299 1.37199 -0)
(-1.90849 1.60589 -0)
(-2.23132 1.87879 -0)
(-0.179204 0.016311 -0)
(-0.183618 0.0493347 -0)
(-0.192554 0.0835732 -0)
(-0.206232 0.11987 -0)
(-0.22499 0.159118 -0)
(-0.24929 0.202285 -0)
(-0.27973 0.250432 -0)
(-0.317059 0.304745 -0)
(-0.362197 0.36656 -0)
(-0.416256 0.437398 -0)
(-0.480569 0.519001 -0)
(-0.55673 0.613374 -0)
(-0.646625 0.722838 -0)
(-0.752486 0.850079 -0)
(-0.87693 0.99822 -0)
(-1.02305 1.17089 -0)
(-1.1945 1.3723 -0)
(-1.3956 1.60738 -0)
(-1.63142 1.88182 -0)
(-1.90798 2.20226 -0)
(-0.144175 0.0182896 -0)
(-0.147726 0.0553191 -0)
(-0.154915 0.093711 -0)
(-0.16592 0.134411 -0)
(-0.181012 0.178421 -0)
(-0.200563 0.226825 -0)
(-0.225055 0.280814 -0)
(-0.25509 0.341719 -0)
(-0.291409 0.411039 -0)
(-0.334906 0.490479 -0)
(-0.386657 0.581995 -0)
(-0.447945 0.68784 -0)
(-0.520294 0.810619 -0)
(-0.605502 0.953356 -0)
(-0.705685 1.11956 -0)
(-0.823338 1.31333 -0)
(-0.961437 1.53942 -0)
(-1.12348 1.80339 -0)
(-1.3136 2.11174 -0)
(-1.53675 2.47204 -0)
(-0.105595 0.0198178 -0)
(-0.108196 0.0599414 -0)
(-0.113462 0.101541 -0)
(-0.121522 0.145642 -0)
(-0.132576 0.19333 -0)
(-0.146896 0.24578 -0)
(-0.164835 0.304283 -0)
(-0.186835 0.37028 -0)
(-0.213438 0.445397 -0)
(-0.245299 0.531483 -0)
(-0.283208 0.63066 -0)
(-0.328105 0.745371 -0)
(-0.38111 0.878443 -0)
(-0.443544 1.03316 -0)
(-0.516958 1.21334 -0)
(-0.603189 1.42344 -0)
(-0.704434 1.66865 -0)
(-0.823274 1.95504 -0)
(-0.962773 2.28972 -0)
(-1.12661 2.68103 -0)
(-0.0644154 0.020858 -0)
(-0.0660021 0.0630877 -0)
(-0.0692145 0.106871 -0)
(-0.0741317 0.153287 -0)
(-0.0808749 0.203479 -0)
(-0.0896108 0.258682 -0)
(-0.100555 0.320257 -0)
(-0.113976 0.389722 -0)
(-0.130205 0.468786 -0)
(-0.149643 0.559398 -0)
(-0.17277 0.66379 -0)
(-0.200162 0.784538 -0)
(-0.232503 0.924621 -0)
(-0.270602 1.0875 -0)
(-0.315405 1.27721 -0)
(-0.368033 1.49845 -0)
(-0.429837 1.7567 -0)
(-0.502405 2.0584 -0)
(-0.587612 2.41108 -0)
(-0.687731 2.82362 -0)
(-0.0216495 0.0213845 -0)
(-0.0221828 0.0646804 -0)
(-0.0232624 0.109569 -0)
(-0.0249151 0.157157 -0)
(-0.0271814 0.208616 -0)
(-0.0301176 0.265214 -0)
(-0.0337959 0.328344 -0)
(-0.038307 0.399564 -0)
(-0.0437617 0.480627 -0)
(-0.0502945 0.573531 -0)
(-0.0580674 0.680564 -0)
(-0.0672743 0.804368 -0)
(-0.0781453 0.948001 -0)
(-0.0909532 1.11502 -0)
(-0.106015 1.30956 -0)
(-0.123705 1.53644 -0)
(-0.144483 1.80129 -0)
(-0.168888 2.11076 -0)
(-0.197545 2.47259 -0)
(-0.23122 2.89592 -0)
)
;

boundaryField
{
    topWall
    {
        type            extrapolatedCalculated;
        value           nonuniform List<vector> 
20
(
(-0.0216495 0.0215169 -0)
(-0.0221828 0.0650809 -0)
(-0.0232624 0.110248 -0)
(-0.0249151 0.158131 -0)
(-0.0271814 0.209908 -0)
(-0.0301176 0.266856 -0)
(-0.0337959 0.330379 -0)
(-0.038307 0.40204 -0)
(-0.0437617 0.483607 -0)
(-0.0502945 0.577087 -0)
(-0.0580674 0.684784 -0)
(-0.0672743 0.809357 -0)
(-0.0781453 0.953881 -0)
(-0.0909532 1.12194 -0)
(-0.106015 1.31769 -0)
(-0.123705 1.546 -0)
(-0.144483 1.81251 -0)
(-0.168888 2.12393 -0)
(-0.197545 2.48807 -0)
(-0.23122 2.91411 -0)
)
;
    }
    leftWall
    {
        type            extrapolatedCalculated;
        value           nonuniform List<vector> 
20
(
(-0.0215174 -0.0213849 -0)
(-0.0640223 -0.0208583 -0)
(-0.10495 -0.019818 -0)
(-0.143294 -0.0182897 -0)
(-0.178109 -0.016311 -0)
(-0.208538 -0.0139308 -0)
(-0.233832 -0.0112075 -0)
(-0.253368 -0.00820842 -0)
(-0.266666 -0.00500723 -0)
(-0.273397 -0.00168279 -0)
(-0.273397 0.00168306 -0)
(-0.266665 0.00500748 -0)
(-0.253367 0.00820863 -0)
(-0.233831 0.0112077 -0)
(-0.208536 0.0139309 -0)
(-0.178107 0.016311 -0)
(-0.143292 0.0182896 -0)
(-0.104949 0.0198178 -0)
(-0.0640211 0.020858 -0)
(-0.0215169 0.0213845 -0)
)
;
    }
    bottomWall
    {
        type            extrapolatedCalculated;
        value           nonuniform List<vector> 
20
(
(-0.0216499 -0.0215174 -0)
(-0.0221831 -0.0650822 -0)
(-0.0232627 -0.11025 -0)
(-0.0249152 -0.158133 -0)
(-0.0271815 -0.209911 -0)
(-0.0301174 -0.266859 -0)
(-0.0337952 -0.33038 -0)
(-0.0383058 -0.40204 -0)
(-0.0437605 -0.483603 -0)
(-0.0502942 -0.577082 -0)
(-0.0580685 -0.68478 -0)
(-0.0672764 -0.809356 -0)
(-0.0781471 -0.953886 -0)
(-0.0909518 -1.12194 -0)
(-0.106012 -1.31769 -0)
(-0.123707 -1.54599 -0)
(-0.144487 -1.81252 -0)
(-0.168887 -2.12394 -0)
(-0.197545 -2.48807 -0)
(-0.231226 -2.91412 -0)
)
;
    }
    frontAndBack
    {
        type            empty;
    }
    air_to_solid
    {
        type            extrapolatedCalculated;
        value           nonuniform List<vector> 
20
(
(-0.249425 -2.89592 -0)
(-0.741827 -2.82363 -0)
(-1.2151 -2.68103 -0)
(-1.65724 -2.47204 -0)
(-2.05727 -2.20226 -0)
(-2.40552 -1.87879 -0)
(-2.69386 -1.50992 -0)
(-2.91578 -1.10488 -0)
(-3.06641 -0.673554 -0)
(-3.14253 -0.226296 -0)
(-3.14252 0.226301 -0)
(-3.06641 0.673559 -0)
(-2.91577 1.10488 -0)
(-2.69385 1.50992 -0)
(-2.40551 1.87879 -0)
(-2.05726 2.20226 -0)
(-1.65724 2.47204 -0)
(-1.21511 2.68103 -0)
(-0.741826 2.82362 -0)
(-0.249417 2.89592 -0)
)
;
    }
}


// ************************************************************************* //
