/*--------------------------------*- C++ -*----------------------------------*\
  =========                 |
  \\      /  F ield         | OpenFOAM: The Open Source CFD Toolbox
   \\    /   O peration     | Website:  https://openfoam.org
    \\  /    A nd           | Version:  7
     \\/     M anipulation  |
\*---------------------------------------------------------------------------*/
FoamFile
{
    version     2.0;
    format      ascii;
    class       volScalarField;
    location    "0.1/air";
    object      Tair;
}
// * * * * * * * * * * * * * * * * * * * * * * * * * * * * * * * * * * * * * //

dimensions      [0 0 0 1 0 0 0];

internalField   nonuniform List<scalar> 
400
(
0.000537935
0.00162705
0.00275624
0.00395332
0.00524777
0.00667147
0.0082595
0.010051
0.0120901
0.014427
0.0171195
0.0202339
0.0238471
0.0280486
0.0329423
0.0386498
0.045313
0.0530985
0.0622017
0.072853
0.00160056
0.00484109
0.00820085
0.0117626
0.0156141
0.0198501
0.0245751
0.0299054
0.0359724
0.0429256
0.0509366
0.0602028
0.0709532
0.0834535
0.0980132
0.114994
0.134817
0.157978
0.185057
0.216739
0.00262376
0.00793591
0.0134435
0.0192822
0.0255958
0.0325398
0.0402853
0.0490231
0.0589685
0.0703666
0.0834983
0.0986876
0.116309
0.136799
0.160664
0.188494
0.220983
0.258938
0.30331
0.355216
0.00358235
0.0108353
0.0183551
0.0263269
0.0349472
0.0444282
0.0550034
0.0669334
0.080512
0.0960739
0.114002
0.13474
0.158798
0.18677
0.219348
0.257338
0.301682
0.353482
0.41403
0.484842
0.00445273
0.0134678
0.0228146
0.0327233
0.0434379
0.0552224
0.0683668
0.0831951
0.100072
0.119414
0.141698
0.167471
0.197371
0.232135
0.27262
0.319827
0.374925
0.439278
0.514485
0.60242
0.00521346
0.0157688
0.0267124
0.0383139
0.050859
0.0646566
0.0800466
0.0974079
0.117168
0.139814
0.165902
0.196077
0.231081
0.271778
0.31917
0.374427
0.438912
0.514219
0.602212
0.705069
0.0058458
0.0176814
0.0299524
0.042961
0.0570277
0.0724988
0.0897552
0.109222
0.131378
0.15677
0.186021
0.219853
0.259099
0.304725
0.357855
0.419797
0.492077
0.576476
0.675074
0.790299
0.00633421
0.0191586
0.0324548
0.0465503
0.0617922
0.0785557
0.0972537
0.118347
0.142353
0.169865
0.20156
0.238216
0.280737
0.330168
0.387727
0.45483
0.533124
0.624535
0.731308
0.856061
0.00666665
0.0201641
0.0341582
0.0489934
0.0650351
0.0826784
0.102358
0.124557
0.149824
0.178779
0.212135
0.250714
0.295463
0.347485
0.408057
0.478669
0.561054
0.657233
0.769562
0.900786
0.00683493
0.0206731
0.0350204
0.0502301
0.0666768
0.0847654
0.104941
0.127701
0.153605
0.183291
0.217489
0.25704
0.302918
0.35625
0.418348
0.490736
0.57519
0.673781
0.788919
0.923416
0.00683493
0.0206731
0.0350204
0.0502301
0.0666767
0.0847654
0.104941
0.127701
0.153605
0.183291
0.217489
0.25704
0.302918
0.35625
0.418348
0.490736
0.57519
0.673781
0.788919
0.923416
0.00666663
0.0201641
0.0341581
0.0489933
0.065035
0.0826783
0.102358
0.124557
0.149824
0.178779
0.212136
0.250714
0.295463
0.347485
0.408057
0.478669
0.561054
0.657233
0.769561
0.900786
0.00633418
0.0191585
0.0324547
0.0465501
0.061792
0.0785555
0.0972536
0.118347
0.142354
0.169866
0.20156
0.238216
0.280737
0.330168
0.387727
0.45483
0.533124
0.624535
0.731307
0.85606
0.00584576
0.0176813
0.0299522
0.0429608
0.0570274
0.0724985
0.089755
0.109222
0.131378
0.15677
0.186022
0.219854
0.259099
0.304725
0.357855
0.419797
0.492077
0.576476
0.675073
0.790298
0.00521341
0.0157686
0.0267122
0.0383137
0.0508587
0.0646564
0.0800464
0.0974079
0.117168
0.139814
0.165903
0.196077
0.231081
0.271777
0.31917
0.374427
0.438912
0.514219
0.602211
0.705068
0.00445268
0.0134677
0.0228144
0.0327231
0.0434377
0.0552221
0.0683666
0.0831951
0.100073
0.119415
0.141698
0.167472
0.197371
0.232134
0.27262
0.319827
0.374924
0.439277
0.514484
0.602419
0.00358231
0.0108352
0.0183549
0.0263267
0.0349469
0.0444279
0.0550032
0.0669334
0.0805122
0.0960743
0.114003
0.13474
0.158797
0.186769
0.219348
0.257338
0.301681
0.353482
0.414029
0.484842
0.00262372
0.00793579
0.0134433
0.019282
0.0255956
0.0325396
0.0402852
0.0490232
0.0589687
0.0703669
0.0834987
0.0986877
0.116309
0.136799
0.160664
0.188495
0.220982
0.258938
0.30331
0.355215
0.00160053
0.00484101
0.00820074
0.0117625
0.0156139
0.01985
0.024575
0.0299054
0.0359726
0.0429259
0.0509368
0.0602029
0.070953
0.0834532
0.0980132
0.114994
0.134817
0.157977
0.185057
0.216739
0.000537923
0.00162702
0.0027562
0.00395327
0.00524771
0.00667141
0.00825946
0.010051
0.0120902
0.0144272
0.0171196
0.0202339
0.023847
0.0280484
0.0329424
0.03865
0.0453129
0.0530983
0.0622017
0.0728528
)
;

boundaryField
{
    topWall
    {
        type            fixedValue;
        value           uniform 0;
    }
    leftWall
    {
        type            fixedValue;
        value           uniform 0;
    }
    bottomWall
    {
        type            fixedValue;
        value           uniform 0;
    }
    frontAndBack
    {
        type            empty;
    }
    air_to_solid
    {
        type            compressible::turbulentTemperatureCoupledBaffleMixed;
        refValue        nonuniform List<scalar> 
20
(
0.0797122
0.237139
0.388631
0.530417
0.658994
0.77122
0.86438
0.936244
0.985112
1.00984
1.00984
0.985112
0.936244
0.864379
0.771219
0.658994
0.530416
0.388631
0.237139
0.0797118
)
;
        refGradient     uniform 0;
        valueFraction   nonuniform List<scalar> 
20
(
0.909091
0.909091
0.909091
0.909091
0.909091
0.909091
0.909091
0.909091
0.909091
0.909091
0.909091
0.909091
0.909091
0.909091
0.909091
0.909091
0.909091
0.909091
0.909091
0.909091
)
;
        value           nonuniform List<scalar> 
20
(
0.0790886
0.235285
0.385593
0.526273
0.653851
0.765206
0.857645
0.928955
0.977446
1.00198
1.00198
0.977446
0.928954
0.857644
0.765205
0.65385
0.526273
0.385593
0.235284
0.0790882
)
;
        Tnbr            Tsolid;
        thicknessLayers 0();
        kappaLayers     0();
        kappaMethod     lookup;
        kappa           kappaAir;
        alphaAni        Anialpha;
    }
}


// ************************************************************************* //
