/*--------------------------------*- C++ -*----------------------------------*\
| =========                 |                                                 |
| \\      /  F ield         | OpenFOAM: The Open Source CFD Toolbox           |
|  \\    /   O peration     | Version:  2406                                  |
|   \\  /    A nd           | Website:  www.openfoam.com                      |
|    \\/     M anipulation  |                                                 |
\*---------------------------------------------------------------------------*/
FoamFile
{
    version     2.0;
    format      ascii;
    arch        "LSB;label=32;scalar=64";
    class       volScalarField;
    location    "3e-05/encapsulator";
    object      voltExt;
}
// * * * * * * * * * * * * * * * * * * * * * * * * * * * * * * * * * * * * * //

dimensions      [1 2 -3 0 0 -1 0];

internalField   nonuniform List<scalar> 
26298
(
-914.3601792
-899.7345208
-883.0355489
-868.9274368
-858.3733696
-850.9432661
-845.8836391
-842.5040089
-840.2725651
-838.8097148
-837.7692637
-836.8415708
-835.9081108
-834.9688959
-935.0311193
-924.1048982
-909.5407702
-896.1520244
-885.6678629
-878.0949851
-872.8601723
-869.3317485
-866.989024
-865.4478399
-864.3492405
-863.3679979
-862.3789615
-861.3821437
-962.0861931
-960.6662402
-952.2057512
-941.3782995
-931.6671395
-924.1672366
-918.790823
-915.089999
-912.6015846
-910.9517615
-909.7699643
-908.7103956
-907.638429
-906.5540811
-984.987861
-1001.579166
-1005.810962
-1000.921998
-993.4446733
-986.5903692
-981.2752594
-977.4614183
-974.8354151
-973.0694786
-971.7934086
-970.6416197
-969.4687573
-968.2748536
-996.8113284
-1041.259021
-1067.277796
-1073.432491
-1070.502199
-1065.229735
-1060.32098
-1056.504144
-1053.763784
-1051.876633
-1050.493503
-1049.231703
-1047.93371
-1046.599594
-994.3363421
-1075.346523
-1133.86581
-1157.998568
-1162.961417
-1160.660021
-1156.672501
-1153.014832
-1150.191852
-1148.173147
-1146.661544
-1145.260819
-1143.798865
-1142.27582
-977.7141013
-1100.481135
-1202.177399
-1252.92512
-1270.407884
-1273.109997
-1270.82993
-1267.594412
-1264.751712
-1262.596483
-1260.93191
-1259.355737
-1257.678479
-1255.900368
-949.5196038
-1114.610816
-1268.038945
-1355.116423
-1391.186115
-1401.807713
-1402.455755
-1400.101041
-1397.386279
-1395.12558
-1393.300051
-1391.520136
-1389.577977
-1387.473854
-913.5069607
-1117.327137
-1327.166446
-1460.107578
-1522.110054
-1544.623883
-1550.031158
-1549.33259
-1547.0541
-1544.801792
-1542.855393
-1540.878448
-1538.648989
-1536.167113
-873.5104578
-1109.800461
-1376.163746
-1562.691088
-1658.595758
-1697.986228
-1710.702231
-1712.858994
-1711.563975
-1709.569122
-1707.627238
-1705.527887
-1703.048513
-1700.188403
-832.7504372
-1094.282706
-1413.264645
-1657.907048
-1795.213382
-1857.105844
-1880.35025
-1887.025645
-1887.550294
-1886.237633
-1884.542511
-1882.493033
-1879.892165
-1876.737053
-793.5581332
-1073.440169
-1438.47322
-1741.991537
-1926.527617
-2016.514555
-2053.922488
-2067.170576
-2070.629867
-2070.607647
-2069.530049
-2067.81475
-2065.329956
-2062.068369
-757.3931177
-1049.793426
-1453.166291
-1812.90845
-2047.960971
-2170.806529
-2226.001435
-2248.071582
-2255.773684
-2257.796256
-2257.817296
-2256.822149
-2254.795456
-2251.722035
-725.0055061
-1025.391786
-1459.462758
-1870.337413
-2156.390098
-2315.368765
-2391.477625
-2424.536869
-2437.833278
-2442.719909
-2444.381765
-2444.556689
-2443.403004
-2440.893236
-696.6354713
-1001.708517
-1459.646813
-1915.262512
-2250.323067
-2446.887102
-2546.144236
-2591.997305
-2612.109626
-2620.640667
-2624.478478
-2626.281256
-2626.437102
-2624.901348
-672.1928189
-979.6799523
-1455.785145
-1949.418905
-2329.70008
-2563.518217
-2687.058546
-2746.942082
-2774.813059
-2787.631662
-2794.104923
-2797.941751
-2799.80782
-2799.636576
-651.3959212
-959.810946
-1449.546097
-1974.802724
-2395.485157
-2664.760033
-2812.622123
-2887.116287
-2923.321626
-2940.866789
-2950.308766
-2956.487758
-2960.38136
-2961.89734
-633.8692212
-942.2938842
-1442.164832
-1993.336206
-2449.224376
-2751.140146
-2922.429592
-3011.483575
-3056.213584
-3078.694658
-3091.288757
-3099.995344
-3106.122516
-3109.549904
-619.2066143
-927.1140812
-1434.489478
-2006.689782
-2492.682694
-2823.853235
-3016.989139
-3120.027159
-3173.126279
-3200.535485
-3216.31806
-3227.613304
-3236.062968
-3241.517499
-607.0096938
-914.1319842
-1427.059138
-2016.220667
-2527.598383
-2884.438625
-3097.413242
-3213.478079
-3274.518746
-3306.669069
-3325.551033
-3339.387024
-3350.142692
-3357.639288
-599.1679131
-905.6000576
-1421.722148
-2021.469195
-2549.295295
-2923.333731
-3149.996583
-3275.248608
-3341.9777
-3377.562678
-3398.708551
-3414.414432
-3426.882697
-3435.912461
-594.5896493
-900.5747766
-1418.470965
-2024.315451
-2561.765976
-2946.008439
-3180.894377
-3311.717131
-3381.918061
-3419.609182
-3442.148016
-3459.00784
-3472.536654
-3482.520028
-589.979601
-895.4702617
-1415.0599
-2026.957028
-2574.114748
-2968.794662
-3212.198967
-3348.84764
-3422.703561
-3462.622335
-3486.639453
-3504.727583
-3519.389334
-3530.395371
-585.3378197
-890.2860138
-1411.486023
-2029.385765
-2586.327647
-2991.678281
-3243.904393
-3386.645531
-3464.349342
-3506.624343
-3532.210571
-3551.606015
-3567.477819
-3579.58054
-580.6643617
-885.0215468
-1407.746404
-2031.593348
-2598.39009
-3014.643957
-3276.003372
-3425.115208
-3506.870109
-3551.637527
-3578.88936
-3599.67617
-3616.840155
-3630.119087
-575.9592884
-879.676388
-1403.838111
-2033.571313
-2610.286868
-3037.675062
-3308.48715
-3464.260025
-3550.280199
-3597.684074
-3626.703834
-3648.971979
-3667.515734
-3682.055671
-571.2226663
-874.2500784
-1399.758215
-2035.31105
-2622.002132
-3060.753605
-3341.345383
-3504.082133
-3594.593234
-3644.786192
-3675.682454
-3699.527896
-3719.544903
-3735.436264
-566.454567
-868.7421738
-1395.503792
-2036.803808
-2633.519389
-3083.86016
-3374.565984
-3544.582332
-3639.822076
-3692.966015
-3725.853969
-3751.378718
-3772.96903
-3790.308594
-561.6550674
-863.1522447
-1391.071924
-2038.040702
-2644.82149
-3106.973792
-3408.134973
-3585.75992
-3685.978703
-3742.245273
-3777.247368
-3804.559889
-3827.830519
-3846.72197
-556.8242497
-857.4798773
-1386.459705
-2039.012717
-2655.890628
-3130.071981
-3442.036303
-3627.612503
-3733.074074
-3792.645167
-3829.891779
-3859.107584
-3884.172782
-3904.72714
-551.9622012
-851.7246738
-1381.66424
-2039.710715
-2666.708337
-3153.130546
-3476.251678
-3670.13577
-3781.11799
-3844.186349
-3883.816307
-3915.058552
-3942.040247
-3964.376341
-547.0690147
-845.886253
-1376.682648
-2040.125446
-2677.255485
-3176.123568
-3510.760359
-3713.323261
-3830.11889
-3896.888843
-3939.049911
-3972.449972
-4001.478382
-4025.723423
-542.1447884
-839.9642508
-1371.512068
-2040.24755
-2687.51228
-3199.023316
-3545.538958
-3757.166107
-3880.083618
-3950.771869
-3995.621309
-4031.319389
-4062.533712
-4088.823917
-537.1896261
-833.9583208
-1366.149661
-2040.067572
-2697.458273
-3221.800165
-3580.561208
-3801.652752
-3931.017146
-4005.853645
-4053.558904
-4091.704688
-4125.253814
-4153.735085
-532.2036368
-827.868135
-1360.592607
-2039.575967
-2707.072363
-3244.422529
-3615.797729
-3846.768634
-3982.922307
-4062.151175
-4112.890661
-4153.644046
-4189.687296
-4220.515955
-527.1869353
-821.693384
-1354.838119
-2038.763112
-2716.33281
-3266.856782
-3651.215769
-3892.495829
-4035.799475
-4119.680012
-4173.643958
-4217.175853
-4255.883792
-4289.227382
-522.1396419
-815.4337778
-1348.883435
-2037.619317
-2725.217245
-3289.067196
-3686.778928
-3938.812656
-4089.646215
-4178.453995
-4235.845387
-4282.338608
-4323.893961
-4359.932133
-517.0618826
-809.0890463
-1342.725829
-2036.134834
-2733.702692
-3311.01587
-3722.446874
-3985.693234
-4144.456873
-4238.484934
-4299.52054
-4349.170812
-4393.769513
-4432.695006
-511.9537891
-802.6589397
-1336.36261
-2034.299874
-2741.765585
-3332.662678
-3758.175032
-4033.106981
-4200.2221
-4299.782247
-4364.693775
-4417.710862
-4465.56324
-4507.583002
-506.8154986
-796.1432295
-1329.791126
-2032.104616
-2749.381795
-3353.965216
-3793.914265
-4081.018059
-4256.928306
-4362.352546
-4431.387956
-4487.996938
-4539.329074
-4584.665538
-501.6471544
-789.5417083
-1323.008771
-2029.539221
-2756.526661
-3374.878761
-3829.610533
-4129.384748
-4314.557034
-4426.199147
-4499.624153
-4560.0669
-4615.122151
-4664.014715
-496.4489054
-782.8541912
-1316.012981
-2026.593849
-2763.175025
-3395.356242
-3865.204545
-4178.158749
-4373.084233
-4491.321514
-4569.421287
-4633.95815
-4692.99889
-4745.705631
-491.2209062
-776.0805156
-1308.801245
-2023.258672
-2769.301271
-3415.348225
-3900.631397
-4227.284403
-4432.479408
-4557.714586
-4640.795683
-4709.707471
-4773.017094
-4829.816753
-485.9633177
-769.2205421
-1301.371104
-2019.523887
-2774.879373
-3434.802914
-3935.820199
-4276.697813
-4492.704622
-4625.367977
-4713.760523
-4787.35081
-4855.236113
-4916.430375
-480.6763062
-762.2741551
-1293.720155
-2015.379738
-2779.882944
-3453.666168
-3970.693711
-4326.325876
-4553.713319
-4694.265006
-4788.32518
-4866.923017
-4939.717087
-5005.633231
-475.3600443
-755.2412633
-1285.846056
-2010.816529
-2784.285293
-3471.881546
-4005.167971
-4376.085188
-4615.448927
-4764.381526
-4864.494431
-4948.457519
-5026.523253
-5097.517317
-470.0147104
-748.1217997
-1277.746528
-2005.824641
-2788.05949
-3489.390368
-4039.151944
-4425.880848
-4677.843215
-4835.684476
-4942.267487
-5031.985915
-5115.720274
-5192.180975
-464.6404888
-740.9157229
-1269.419359
-2000.394551
-2791.178432
-3506.131815
-4072.547197
-4475.605124
-4740.814343
-4908.130098
-5021.636753
-5117.537449
-5207.376548
-5289.730262
-459.23757
-733.6230173
-1260.862408
-1994.516851
-2793.614921
-3522.043052
-4105.247607
-4525.135992
-4804.264557
-4981.661694
-5102.586185
-5205.138337
-5301.563557
-5390.280609
-453.8061504
-726.2436933
-1252.073608
-1988.182265
-2795.341744
-3537.059389
-4137.139132
-4574.335558
-4868.077451
-5056.206831
-5185.089103
-5294.810795
-5398.356379
-5493.958794
-448.3464324
-718.7777883
-1243.050969
-1981.381667
-2796.33176
-3551.114483
-4168.099658
-4623.048363
-4932.114701
-5131.673832
-5269.10535
-5386.571575
-5497.834421
-5600.905442
-442.8586245
-711.2253666
-1233.792585
-1974.106105
-2796.557992
-3564.140578
-4197.998944
-4671.099603
-4996.212202
-5207.947348
-5354.577619
-5480.429747
-5600.082083
-5711.278467
-437.3429415
-703.5865205
-1224.29663
-1966.346813
-2795.99373
-3576.068798
-4226.698703
-4718.293327
-5060.175514
-5284.882697
-5441.426599
-5576.383642
-5705.188977
-5825.257753
-431.7996038
-695.8613703
-1214.561371
-1958.095235
-2794.612626
-3586.829484
-4254.052845
-4764.410659
-5123.774541
-5362.298624
-5529.544219
-5674.416758
-5813.249672
-5943.050856
-426.2288383
-688.0500648
-1204.585162
-1949.343044
-2792.388812
-3596.352581
-4279.907921
-4809.208173
-5186.737411
-5439.968163
-5618.784124
-5774.491645
-5924.36343
-6064.899805
-420.6308779
-680.1527819
-1194.366455
-1940.082159
-2789.297005
-3604.568088
-4304.103807
-4852.416543
-5248.743519
-5517.607184
-5708.948825
-5876.539795
-6038.633262
-6191.090687
-415.0059614
-672.1697288
-1183.903797
-1930.304763
-2785.312622
-3611.406548
-4326.474681
-4893.73966
-5309.415892
-5594.85983
-5799.77291
-5980.446232
-6156.161249
-6321.966838
-834.0668912
-833.2031035
-832.3345902
-831.4613617
-830.5834287
-829.7008019
-828.8134928
-827.9215129
-827.0248739
-826.123588
-825.2176676
-824.3071255
-823.3919746
-822.4722284
-821.5479004
-820.6190044
-819.6855547
-818.7475658
-817.8050525
-816.8580297
-815.9065129
-814.9505177
-860.4232209
-859.5035525
-858.577487
-857.6450364
-856.7062134
-855.7610314
-854.8095044
-853.851647
-852.8874747
-851.9170034
-850.9402497
-849.9572308
-848.9679646
-847.9724696
-846.9707651
-845.9628707
-844.9488068
-843.9285945
-842.9022554
-841.8698117
-840.8312863
-839.7867027
-905.5072214
-904.5000123
-903.482621
-902.4550669
-901.4173711
-900.3695562
-899.3116465
-898.243668
-897.165648
-896.0776158
-894.9796021
-893.871639
-892.7537604
-891.6260018
-890.4884
-889.3409935
-888.1838223
-887.0169278
-885.840353
-884.6541424
-883.4583417
-882.2529984
-967.1151698
-965.9933859
-964.8543161
-963.6980018
-962.5244882
-961.3338246
-960.1260644
-958.9012648
-957.6594869
-956.4007958
-955.1252605
-953.8329535
-952.5239514
-951.1983345
-949.8561866
-948.4975953
-947.1226518
-945.7314508
-944.3240907
-942.900673
-941.4613029
-940.0060888
-1045.291721
-1044.016422
-1042.711502
-1041.377054
-1040.013181
-1038.619997
-1037.197622
-1035.746189
-1034.265839
-1032.756721
-1031.218994
-1029.652826
-1028.058395
-1026.435884
-1024.78549
-1023.107413
-1021.401866
-1019.669067
-1017.909243
-1016.122629
-1014.309468
-1012.470011
-1140.763857
-1139.273709
-1137.733556
-1136.143597
-1134.504053
-1132.815169
-1131.077209
-1129.29046
-1127.455231
-1125.571851
-1123.64067
-1121.662059
-1119.636409
-1117.564131
-1115.445655
-1113.28143
-1111.071926
-1108.817628
-1106.519041
-1104.176687
-1101.791103
-1099.362846
-1254.107102
-1252.316431
-1250.443297
-1248.488084
-1246.451228
-1244.333211
-1242.134568
-1239.85588
-1237.497776
-1235.060933
-1232.546075
-1229.953971
-1227.285436
-1224.541327
-1221.722548
-1218.830043
-1215.864795
-1212.827831
-1209.720213
-1206.543042
-1203.297454
-1199.98462
-1385.31119
-1383.11849
-1380.793323
-1378.336356
-1375.748358
-1373.030209
-1370.182891
-1367.207496
-1364.105217
-1360.877352
-1357.525301
-1354.05056
-1350.454728
-1346.739493
-1342.906642
-1338.958047
-1334.89567
-1330.721555
-1326.437828
-1322.046693
-1317.550426
-1312.951375
-1533.557506
-1530.864489
-1527.964572
-1524.858753
-1521.548254
-1518.034517
-1514.319207
-1510.404211
-1506.291632
-1501.983789
-1497.483216
-1492.792653
-1487.915041
-1482.853522
-1477.61143
-1472.192282
-1466.599777
-1460.837782
-1454.910331
-1448.821612
-1442.575959
-1436.177848
-1697.094768
-1693.834109
-1690.259919
-1686.37344
-1682.17635
-1677.670767
-1672.859251
-1667.7448
-1662.330848
-1656.621259
-1650.620321
-1644.332735
-1637.76361
-1630.918447
-1623.80313
-1616.423913
-1608.787401
-1600.900538
-1592.770588
-1584.405117
-1575.811972
-1566.999264
-1873.194615
-1869.360824
-1865.067257
-1860.314977
-1855.105857
-1849.442589
-1843.328694
-1836.768518
-1829.767224
-1822.33079
-1814.465993
-1806.1804
-1797.482349
-1788.380929
-1778.885959
-1769.00796
-1758.758124
-1748.14828
-1737.190859
-1725.898855
-1714.28578
-1702.365622
-2058.20828
-2053.882558
-2048.90592
-2043.278267
-2037.000915
-2030.076613
-2022.509557
-2014.30539
-2005.471207
-1996.015553
-1985.948408
-1975.28118
-1964.026673
-1952.199059
-1939.813834
-1926.88777
-1913.438853
-1899.486222
-1885.050094
-1870.151686
-1854.813134
-1839.057399
-2247.777251
-2243.137324
-2237.609218
-2231.189956
-2223.878851
-2215.677537
-2206.58999
-2196.622571
-2185.784069
-2174.085721
-2161.541206
-2148.166631
-2133.980507
-2119.003695
-2103.259335
-2086.772758
-2069.571383
-2051.684613
-2033.143698
-2013.981594
-1994.232798
-1973.933193
-2437.180502
-2432.488807
-2426.629672
-2419.594727
-2411.379041
-2401.981142
-2391.403104
-2379.65071
-2366.733603
-2352.665331
-2337.463316
-2321.148852
-2303.747118
-2285.287119
-2265.801552
-2245.326661
-2223.902101
-2201.57079
-2178.378681
-2154.374485
-2129.609407
-2104.136878
-2621.782804
-2617.354978
-2611.447874
-2604.044573
-2595.132924
-2584.705614
-2572.760404
-2559.30056
-2544.335128
-2527.878924
-2509.952459
-2490.582036
-2469.799904
-2447.644206
-2424.158712
-2399.392596
-2373.400341
-2346.241578
-2317.980686
-2288.68628
-2258.430801
-2227.290169
-2797.47072
-2793.632194
-2787.9831
-2780.494525
-2771.143756
-2759.914536
-2746.7976
-2731.791371
-2714.902251
-2696.144477
-2675.540172
-2653.119777
-2628.922381
-2602.995542
-2575.394867
-2546.183805
-2515.433703
-2483.223626
-2449.639643
-2414.773977
-2378.7245
-2341.594379
-2960.993594
-2958.037047
-2952.933508
-2945.638899
-2936.116843
-2924.33928
-2910.287293
-2893.951886
-2875.334218
-2854.445517
-2831.307602
-2805.953826
-2778.429279
-2748.790251
-2717.103944
-2683.448645
-2647.913835
-2610.599735
-2571.616265
-2531.082021
-2489.123775
-2445.876028
-3110.137054
-3108.290734
-3103.968998
-3097.110342
-3087.662374
-3075.58289
-3060.840988
-3043.417574
-3023.305918
-3000.512171
-2975.056115
-2946.972344
-2916.310314
-2883.133531
-2847.51978
-2809.561984
-2769.367999
-2727.059525
-2682.771084
-2636.649336
-2588.852468
-2539.549169
-3243.730455
-3243.142718
-3239.76964
-3233.531047
-3224.357227
-3212.189881
-3196.984316
-3178.709473
-3157.348774
-3132.901942
-3105.385189
-3074.831927
-3041.293732
-3004.839847
-2965.557419
-2923.552733
-2878.950874
-2831.894206
-2782.541669
-2731.06855
-2677.665446
-2622.536339
-3361.522192
-3362.261319
-3359.930966
-3354.431361
-3345.67555
-3333.588037
-3318.10908
-3299.195436
-3276.819617
-3250.973255
-3221.667468
-3188.932442
-3152.819908
-3113.403584
-3070.778429
-3025.061778
-2976.393836
-2924.936391
-2870.871989
-2814.403624
-2755.753385
-2695.160095
-3441.066945
-3442.834898
-3441.336248
-3436.455089
-3428.091771
-3416.158278
-3400.582344
-3381.31146
-3358.309657
-3331.560779
-3301.071085
-3266.867911
-3229.002001
-3187.549039
-3142.608547
-3094.304709
-3042.78777
-2988.233257
-2930.84065
-2870.832711
-2808.454336
-2743.970373
-3488.470065
-3490.885588
-3489.915676
-3485.434878
-3477.334539
-3465.519548
-3449.909997
-3430.446522
-3407.088064
-3379.813726
-3348.626043
-3313.55061
-3274.637641
-3231.963285
-3185.629236
-3135.763844
-3082.523504
-3026.091909
-2966.678628
-2904.518367
-2839.870049
-2773.014821
-3537.203201
-3540.321671
-3539.930689
-3535.895504
-3528.097358
-3516.432866
-3500.814553
-3481.175388
-3457.468131
-3429.667172
-3397.771213
-3361.803271
-3321.812315
-3277.874678
-3230.094172
-3178.603418
-3123.565025
-3065.170782
-3003.640496
-2939.221616
-2872.188378
-2802.839444
-3587.312787
-3591.193934
-3591.436334
-3587.895408
-3580.442166
-3568.963644
-3553.363956
-3533.568206
-3509.522415
-3481.195704
-3448.582396
-3411.702053
-3370.60173
-3325.357923
-3276.076682
-3222.894575
-3165.979932
-3105.532694
-3041.7837
-2974.994164
-2905.454407
-2833.481306
-3638.847248
-3643.554875
-3644.48958
-3641.495784
-3634.43374
-3623.180056
-3607.629556
-3587.69926
-3563.327965
-3534.478401
-3501.139541
-3463.327114
-3421.086125
-3374.492888
-3323.655096
-3268.712761
-3209.839888
-3147.24499
-3081.170518
-3011.891952
-2939.716291
-2864.979692
-3691.856504
-3697.459179
-3699.149811
-3696.76049
-3690.139802
-3679.153586
-3663.686758
-3643.647336
-3618.965937
-3589.59804
-3555.526712
-3516.763523
-3473.350958
-3425.364386
-3372.912455
-3316.138366
-3255.221925
-3190.380432
-3121.868112
-3049.975047
-2975.025754
-2897.37715
-3746.39231
-3752.963935
-3755.478856
-3753.755996
-3747.631478
-3736.959722
-3721.614891
-3701.494884
-3676.521254
-3646.641686
-3611.832885
-3572.101606
-3527.48695
-3478.062508
-3423.937367
-3365.257736
-3302.209141
-3235.017521
-3163.948861
-3089.308307
-3011.439008
-2930.72025
-3802.508308
-3810.128332
-3813.541189
-3812.551921
-3806.983395
-3796.677554
-3781.496827
-3761.328094
-3736.083182
-3705.701428
-3670.152439
-3629.437202
-3583.590476
-3532.683336
-3476.82482
-3416.163765
-3350.891022
-3281.240833
-3207.490947
-3129.962174
-3049.017452
-2965.059972
-3860.260049
-3869.013817
-3873.404097
-3873.221092
-3868.273473
-3858.389577
-3843.419224
-3823.237562
-3797.746026
-3766.874792
-3730.585375
-3688.871948
-3641.764029
-3589.329456
-3531.676553
-3468.956115
-3401.363701
-3329.141472
-3252.578984
-3172.013275
-3087.828114
-3000.45202
-3919.705079
-3929.684299
-3935.137692
-3935.83943
-3931.582971
-3922.18206
-3907.473124
-3887.318857
-3861.60943
-3830.264832
-3793.237398
-3750.513488
-3702.11651
-3648.1102
-3588.601242
-3523.741457
-3453.730371
-3378.817646
-3299.30462
-3215.544964
-3127.944122
-3036.957321
-3980.903019
-3992.206229
-3998.814943
-4000.486069
-3996.996835
-3988.14552
-3973.754338
-3953.672649
-3927.778319
-3895.980058
-3858.21998
-3814.475675
-3764.763465
-3709.141903
-3647.714838
-3580.633983
-3508.101969
-3430.375429
-3347.767283
-3260.648
-3169.44538
-3074.642725
-4043.915626
-4056.648655
-4064.511831
-4067.243642
-4064.604037
-4056.374967
-4042.363465
-4022.404579
-3996.362788
-3964.134494
-3925.650595
-3880.878898
-3829.827483
-3772.548383
-3709.141194
-3639.756198
-3564.598083
-3483.929701
-3398.075094
-3307.421458
-3212.419477
-3113.581897
-4108.806868
-4123.083348
-4132.307569
-4136.198518
-4134.497725
-4126.969885
-4113.405799
-4093.625218
-4067.478237
-4034.847988
-3995.653144
-3949.850571
-3897.43873
-3838.461579
-3773.012837
-3701.23981
-3623.347915
-3539.605151
-3450.345913
-3355.973805
-3256.962774
-3153.856336
-4175.643029
-4191.584944
-4202.284778
-4207.44092
-4206.77525
-4200.034222
-4186.991379
-4167.450275
-4141.24573
-4108.246663
-4068.358422
-4021.525599
-3967.735453
-3907.022129
-3839.471635
-3765.226481
-3684.49111
-3597.537194
-3504.708364
-3406.424031
-3303.181589
-3195.556536
-4244.49283
-4262.231094
-4274.529624
-4281.065019
-4281.538252
-4275.676539
-4263.235259
-4244.000965
-4217.792396
-4184.463281
-4143.904422
-4096.046657
-4040.864294
-3978.379755
-3908.669268
-3831.868382
-3748.178423
-3657.872796
-3561.30283
-3458.902802
-3351.193452
-3238.783253
-4315.427558
-4335.102614
-4349.131973
-4357.169097
-4358.892875
-4354.010295
-4342.257838
-4323.404322
-4297.251653
-4263.637362
-4222.436406
-4173.564282
-4116.980468
-4052.69356
-3980.767643
-3901.328747
-3814.572438
-3720.771376
-3620.282553
-3513.55373
-3401.128496
-3283.648967
-4388.521227
-4410.283678
-4426.185614
-4435.855816
-4438.950061
-4435.154158
-4424.185104
-4405.793335
-4379.763234
-4345.915149
-4304.106879
-4254.236945
-4196.247984
-4130.132419
-4055.939473
-3973.78264
-3883.848531
-3786.405993
-3681.815033
-3570.534946
-3453.131153
-3330.279637
-4463.85077
-4487.862083
-4505.788542
-4517.232537
-4521.825848
-4519.232228
-4509.148748
-4491.306948
-4465.473109
-4431.449529
-4389.075603
-4338.23121
-4278.839985
-4210.875528
-4134.369049
-4049.417971
-3956.196154
-3854.96487
-3746.083773
-3630.02103
-3507.362213
-3378.816816
-4541.496289
-4567.929572
-4588.043301
-4601.411671
-4607.641632
-4606.374203
-4597.286203
-4580.090012
-4554.533418
-4520.400011
-4477.50966
-4425.721922
-4364.939092
-4295.112941
-4216.253023
-4128.436556
-4031.820175
-3926.65304
-3813.290211
-3692.205182
-3564.001176
-3429.420122
-4621.541347
-4650.582235
-4673.057376
-4688.511023
-4696.524428
-4696.715504
-4688.740679
-4672.293249
-4647.10243
-4612.932706
-4569.583484
-4516.892293
-4454.737589
-4383.045909
-4301.800968
-4211.054969
-4110.942078
-4001.693893
-3883.655617
-3757.301466
-3623.248797
-3482.269986
-4704.073343
-4735.920958
-4760.943643
-4778.654177
-4788.607161
-4790.397434
-4783.661224
-4768.073247
-4743.344486
-4709.220248
-4665.478764
-4611.933833
-4548.437414
-4474.887015
-4391.235746
-4297.505226
-4193.801002
-4080.33062
-3957.422974
-3825.547125
-3685.329807
-3537.570726
-4789.183969
-4824.051951
-4851.820939
-4871.970955
-4884.029044
-4887.567417
-4882.202836
-4867.592448
-4843.4299
-4809.441622
-4765.384232
-4711.046158
-4646.250061
-4570.860264
-4484.793886
-4388.035524
-4280.65491
-4162.827841
-4034.859082
-3897.205187
-3750.496032
-3595.554123
-4876.969813
-4915.087395
-4945.814783
-4968.598037
-4982.936081
-4988.379329
-4984.526591
-4971.019096
-4947.534712
-4913.781802
-4869.495259
-4814.436637
-4748.396388
-4671.201152
-4582.726009
-4482.911124
-4371.781991
-4249.473548
-4116.257061
-3972.567545
-3819.030049
-3656.483646
-4967.533146
-5009.146298
-5043.058296
-5068.679796
-5085.481691
-5092.993894
-5090.799724
-5078.52701
-5055.840195
-5022.431066
-4978.013095
-4922.319695
-4855.106113
-4776.156475
-4685.297072
-4582.415135
-4467.482066
-4340.581193
-4201.939117
-4051.958391
-3891.249302
-3720.659254
-5060.982915
-5106.355646
-5143.693315
-5172.369329
-5191.827418
-5201.579056
-5201.195585
-5190.295147
-5168.532069
-5135.583964
-5091.143731
-5034.915714
-4966.616918
-4885.983766
-4792.786261
-4686.848992
-4568.077782
-4436.491666
-4292.259346
-4135.73783
-3967.51051
-3788.422627
-5157.435941
-5206.85188
-5247.871748
-5279.829665
-5302.143742
-5314.310328
-5315.893524
-5306.507023
-5285.799568
-5253.438117
-5209.096591
-5152.449763
-5083.173366
-5000.950546
-4905.486709
-4796.532782
-4673.915688
-4537.575252
-4387.606612
-4224.305683
-4048.214389
-3860.162859
-5257.018366
-5310.782714
-5355.757273
-5391.235173
-5416.611068
-5431.371198
-5435.078777
-5427.350108
-5407.834468
-5376.19298
-5332.083164
-5275.150241
-5205.025732
-5121.333511
-5023.705193
-4911.805608
-4785.367413
-4644.233754
-4488.407691
-4318.105648
-4133.810807
-3936.322685
-5359.867521
-5418.309372
-5467.527583
-5506.773334
-5535.420961
-5552.953643
-5558.942292
-5553.015046
-5534.829825
-5504.048238
-5460.315187
-5403.247031
-5332.428312
-5247.417226
-5147.761444
-5033.025696
-4902.830751
-4756.902673
-4595.130602
-4417.629731
-4224.804264
-4017.405081
-5466.134499
-5529.609381
-5583.377298
-5626.647028
-5658.77761
-5679.258654
-5687.680334
-5683.694452
-5666.978123
-5637.201502
-5594.002031
-5536.968749
-5465.636761
-5379.491844
-5277.986564
-5160.569809
-5026.730291
-4876.053197
-4708.287952
-4523.422832
-4321.759531
-4103.979953
-5575.987577
-5644.880283
-5703.521557
-5751.077491
-5786.899619
-5810.496839
-5821.49393
-5819.581434
-5804.469025
-5775.845537
-5733.347575
-5676.539437
-5604.90482
-5517.850168
-5414.720799
-5294.832146
-5157.517767
-5002.194186
-4828.440535
-4636.0877
-4425.307578
-4196.690839
-5689.616477
-5764.344618
-5828.200537
-5880.308009
-5920.022336
-5946.889287
-5960.588366
-5960.868016
-5947.486968
-5920.165259
-5878.546862
-5822.175034
-5750.480793
-5662.784409
-5558.311003
-5436.222991
-5295.67238
-5135.874462
-4956.201575
-4756.290686
-4536.152103
-4296.261604
-5807.237603
-5888.256453
-5957.685395
-6014.608417
-6058.400562
-6088.668395
-6105.172298
-6107.742841
-6096.207874
-6070.33373
-6029.781653
-5974.078755
-5902.602963
-5814.581924
-5709.107124
-5585.166552
-5441.70061
-5277.685067
-5092.241442
-4884.768296
-4655.076641
-4403.502762
-5929.101101
-6016.909569
-6092.285965
-6154.280497
-6202.311251
-6236.078067
-6255.455926
-6260.387729
-6250.79457
-6226.506776
-6187.214522
-6132.43491
-6061.493407
-5973.519352
-5867.457138
-5742.097401
-5596.135042
-5428.261203
-5237.292892
-5022.334844
-4782.952603
-4519.317342
-6055.500915
-6150.648273
-6232.360447
-6299.664824
-6352.056795
-6389.373847
-6411.648935
-6418.97413
-6411.392167
-6388.817616
-6350.982871
-6297.402446
-6227.351265
-6139.855934
-6033.701009
-5907.455982
-5759.532611
-5588.284422
-5392.157704
-5169.892552
-4920.749778
-4644.707317
-6186.788349
-6289.88287
-6378.328396
-6451.149518
-6507.969247
-6548.823158
-6573.957887
-6583.65892
-6578.122954
-6557.371093
-6521.192532
-6469.10789
-6400.345094
-6313.825571
-6208.163075
-6081.682467
-5932.471636
-5758.484717
-5557.715039
-5328.445231
-5069.551005
-4780.781965
-6323.389813
-6435.11052
-6530.68787
-6609.180022
-6670.413061
-6714.70302
-6742.580691
-6754.577099
-6751.078349
-6732.235292
-6697.90901
-6647.635993
-6580.602735
-6495.626021
-6391.141185
-6265.207215
-6115.545878
-5939.641156
-5734.931101
-5499.11659
-5230.573369
-4928.77046
-6465.832029
-6586.942063
-6690.036236
-6774.270406
-6839.787379
-6887.296274
-6917.69978
-6931.833741
-6930.310484
-6913.432973
-6881.148558
-6833.019984
-6768.200313
-6685.406487
-6582.893362
-6458.438056
-6309.355513
-6132.581064
-5924.871173
-5683.176411
-5405.201397
-5090.044587
-814.0007317
-813.0573664
-812.1097655
-811.1579445
-810.2019194
-809.2417064
-808.2773219
-807.3087824
-806.3361051
-838.7477583
-837.7147417
-836.6760029
-835.6315661
-834.5814558
-833.5256971
-832.4643158
-831.397338
-830.3247904
-881.0516592
-879.854789
-878.6489376
-877.4341544
-876.2104901
-874.9779964
-873.7367263
-872.4867342
-871.2280753
-938.5514864
-937.0982958
-935.6302836
-934.1475629
-932.6502499
-931.1384632
-929.6123244
-928.0719574
-926.5174889
-1010.625242
-1008.776556
-1006.90348
-1005.006273
-1003.085201
-1001.140537
-999.1725583
-997.1815474
-995.1677931
-1096.919934
-1094.464772
-1091.970473
-1089.437611
-1086.866774
-1084.258559
-1081.613577
-1078.93245
-1076.215808
-1196.643287
-1193.277526
-1189.850975
-1186.364845
-1182.820366
-1179.218796
-1175.561414
-1171.849516
-1168.084421
-1308.304169
-1303.61556
-1298.835703
-1293.967014
-1289.01196
-1283.973048
-1278.852825
-1273.653872
-1268.378803
-1429.704612
-1423.167215
-1416.497439
-1409.69989
-1402.779257
-1395.740302
-1388.587853
-1381.32679
-1373.962039
-1558.075608
-1549.058389
-1539.855531
-1530.475383
-1520.926429
-1511.217274
-1501.356614
-1491.353222
-1481.21592
-1690.288498
-1678.08126
-1665.622349
-1652.926162
-1640.007311
-1626.880572
-1613.560847
-1600.063112
-1586.402373
-1823.08761
-1806.944065
-1790.470562
-1773.690734
-1756.628522
-1739.308078
-1721.753676
-1703.98962
-1686.040153
-1953.351124
-1932.545195
-1911.320525
-1889.714073
-1867.763208
-1845.505527
-1822.978683
-1800.220212
-1777.267363
-2078.302524
-2052.188828
-2025.559852
-1998.470741
-1970.977151
-1943.134934
-1914.999814
-1886.627075
-1858.071264
-2195.698266
-2163.767368
-2131.220054
-2098.134954
-2064.59134
-2030.668595
-1996.445617
-1962.000258
-1927.408857
-2303.914694
-2265.83324
-2227.032583
-2187.620121
-2147.704135
-2107.392915
-2066.793658
-2026.011504
-1985.148884
-2401.973073
-2357.603082
-2312.411699
-2266.539954
-2220.130178
-2173.324534
-2126.263147
-2079.082646
-2031.915368
-2489.479342
-2438.875009
-2387.349304
-2335.081034
-2282.250735
-2229.03834
-2175.620544
-2122.168929
-2068.84895
-2566.525617
-2509.911261
-2452.279152
-2393.848751
-2334.84142
-2275.477323
-2215.972311
-2156.53562
-2097.368195
-2633.568915
-2571.304573
-2507.930845
-2443.70882
-2378.901673
-2313.77112
-2248.573855
-2183.558373
-2118.962089
-2678.399708
-2612.10266
-2544.629186
-2476.272198
-2407.327236
-2338.088568
-2268.84494
-2199.875338
-2131.445074
-2705.017125
-2636.259505
-2566.283805
-2495.402866
-2423.932877
-2352.189007
-2280.48035
-2209.104923
-2138.34542
-2732.287199
-2660.937783
-2588.325269
-2514.784745
-2440.655266