/*--------------------------------*- C++ -*----------------------------------*\
  =========                 |
  \\      /  F ield         | OpenFOAM: The Open Source CFD Toolbox
   \\    /   O peration     | Website:  https://openfoam.org
    \\  /    A nd           | Version:  7
     \\/     M anipulation  |
\*---------------------------------------------------------------------------*/
FoamFile
{
    version     2.0;
    format      ascii;
    class       volScalarField;
    location    "0.2/solid";
    object      Tsolid;
}
// * * * * * * * * * * * * * * * * * * * * * * * * * * * * * * * * * * * * * //

dimensions      [0 0 0 1 0 0 0];

internalField   nonuniform List<scalar> 
400
(
0.0797122
0.0829569
0.0882908
0.0958604
0.105889
0.118676
0.134627
0.15428
0.178361
0.207862
0.244177
0.289343
0.346481
0.42068
0.520908
0.664728
0.891632
1.30701
2.24876
4.99368
0.237139
0.246784
0.262635
0.285125
0.314908
0.352864
0.400176
0.458411
0.529664
0.616773
0.723681
0.856056
1.02238
1.23601
1.51913
1.9111
2.48643
3.39464
4.9431
7.71331
0.388631
0.404411
0.430337
0.467103
0.515754
0.577696
0.6548
0.749526
0.865114
1.00589
1.17772
1.38882
1.65099
1.98184
2.40851
2.97412
3.74833
4.84202
6.4157
8.62975
0.530417
0.551909
0.587195
0.637203
0.70331
0.787365
0.891802
1.01978
1.17538
1.36394
1.59249
1.8705
2.21092
2.63186
3.15896
3.82853
4.69076
5.80941
7.24793
9.01977
0.658994
0.68563
0.729329
0.791209
0.872918
0.976652
1.10527
1.2624
1.45269
1.682
1.95782
2.28977
2.69033
3.17572
3.76692
4.49029
5.37678
6.4569
7.74686
9.22114
0.77122
0.802311
0.85328
0.925392
1.0205
1.14106
1.2902
1.47188
1.69099
1.95356
2.26702
2.64044
3.0849
3.61378
4.2427
4.98893
5.86918
6.89456
8.06147
9.33907
0.86438
0.899141
0.956084
1.03658
1.14264
1.27688
1.44261
1.64393
1.88582
2.17425
2.51625
2.92005
3.39508
3.95179
4.60117
5.35356
6.21645
7.19069
8.26538
9.41274
0.936244
0.973818
1.03533
1.12223
1.23661
1.3812
1.55942
1.77541
2.03413
2.34136
2.70368
3.12844
3.62357
4.19713
4.85662
5.60769
6.45235
7.38637
8.39663
9.45926
0.985112
1.02459
1.08918
1.18039
1.30037
1.4519
1.63845
1.86416
2.13394
2.45337
2.82866
3.26648
3.77363
4.35656
5.02047
5.76825
6.59889
7.50582
8.47551
9.48693
1.00984
1.05027
1.11642
1.2098
1.33259
1.4876
1.6783
1.90886
2.18411
2.50954
2.89112
3.33518
3.84793
4.43498
5.10047
5.84595
6.66912
7.56253
8.51264
9.49989
1.00984
1.05027
1.11642
1.2098
1.33259
1.4876
1.6783
1.90886
2.18411
2.50954
2.89112
3.33518
3.84793
4.43498
5.10047
5.84595
6.66912
7.56253
8.51264
9.49989
0.985112
1.02459
1.08918
1.18039
1.30037
1.4519
1.63845
1.86416
2.13395
2.45337
2.82866
3.26648
3.77363
4.35656
5.02047
5.76825
6.59889
7.50582
8.47551
9.48693
0.936244
0.973819
1.03533
1.12223
1.23661
1.3812
1.55942
1.77541
2.03413
2.34136
2.70368
3.12845
3.62357
4.19713
4.85662
5.60769
6.45235
7.38637
8.39663
9.45926
0.864379
0.899143
0.956083
1.03659
1.14264
1.27688
1.44261
1.64393
1.88583
2.17425
2.51625
2.92005
3.39508
3.95179
4.60117
5.35356
6.21645
7.19069
8.26538
9.41274
0.771219
0.802313
0.853279
0.925393
1.0205
1.14106
1.2902
1.47188
1.69099
1.95357
2.26702
2.64044
3.08491
3.61378
4.2427
4.98893
5.86918
6.89456
8.06147
9.33907
0.658994
0.685633
0.729328
0.79121
0.872918
0.97665
1.10526
1.2624
1.4527
1.68201
1.95782
2.28977
2.69033
3.17572
3.76692
4.49029
5.37678
6.4569
7.74686
9.22114
0.530416
0.551911
0.587194
0.637204
0.70331
0.787364
0.891801
1.01978
1.17538
1.36394
1.5925
1.8705
2.21092
2.63186
3.15896
3.82853
4.69076
5.8094
7.24793
9.01977
0.388631
0.404414
0.430336
0.467105
0.515754
0.577695
0.654798
0.749525
0.865115
1.00589
1.17772
1.38882
1.65099
1.98184
2.40851
2.97412
3.74833
4.84202
6.4157
8.62975
0.237139
0.246786
0.262634
0.285127
0.314908
0.352863
0.400174
0.458411
0.529665
0.616774
0.723682
0.856057
1.02239
1.23601
1.51913
1.9111
2.48643
3.39464
4.9431
7.71331
0.0797118
0.0829574
0.0882906
0.0958613
0.105889
0.118675
0.134626
0.15428
0.178361
0.207863
0.244178
0.289343
0.346482
0.42068
0.520908
0.664728
0.891632
1.30701
2.24876
4.99368
)
;

boundaryField
{
    topWall
    {
        type            fixedValue;
        value           uniform 0;
    }
    rightWall
    {
        type            fixedValue;
        value           uniform 10;
    }
    bottomWall
    {
        type            fixedValue;
        value           uniform 0;
    }
    frontAndBack
    {
        type            empty;
    }
    solid_to_air
    {
        type            compressible::turbulentTemperatureCoupledBaffleMixed;
        refValue        nonuniform List<scalar> 
20
(
0.072853
0.216739
0.355216
0.484842
0.60242
0.705069
0.790299
0.856061
0.900786
0.923416
0.923416
0.900786
0.85606
0.790298
0.705068
0.602419
0.484842
0.355215
0.216739
0.0728528
)
;
        refGradient     uniform 0;
        valueFraction   nonuniform List<scalar> 
20
(
0.0909091
0.0909091
0.0909091
0.0909091
0.0909091
0.0909091
0.0909091
0.0909091
0.0909091
0.0909091
0.0909091
0.0909091
0.0909091
0.0909091
0.0909091
0.0909091
0.0909091
0.0909091
0.0909091
0.0909091
)
;
        value           nonuniform List<scalar> 
20
(
0.0790886
0.235285
0.385593
0.526273
0.653851
0.765206
0.857645
0.928955
0.977446
1.00198
1.00198
0.977446
0.928954
0.857644
0.765205
0.65385
0.526273
0.385593
0.235284
0.0790882
)
;
        Tnbr            Tair;
        thicknessLayers 0();
        kappaLayers     0();
        kappaMethod     lookup;
        kappa           kappaSolid;
        alphaAni        Anialpha;
    }
}


// ************************************************************************* //
