/*--------------------------------*- C++ -*----------------------------------*\
  =========                 |
  \\      /  F ield         | OpenFOAM: The Open Source CFD Toolbox
   \\    /   O peration     | Website:  https://openfoam.org
    \\  /    A nd           | Version:  7
     \\/     M anipulation  |
\*---------------------------------------------------------------------------*/
FoamFile
{
    version     2.0;
    format      ascii;
    class       volVectorField;
    location    "0.0436581/insulator";
    object      EI;
}
// * * * * * * * * * * * * * * * * * * * * * * * * * * * * * * * * * * * * * //

dimensions      [1 1 -3 0 0 -1 0];

internalField   nonuniform List<vector> 
28992
(
(-27.616 3.8936 0)
(-85.0941 5.34269 0)
(-150.329 8.0307 0)
(-227.148 11.9406 0)
(-313.918 16.5692 0)
(-400.948 19.3481 0)
(-463.247 12.1223 0)
(-452.703 -23.2586 0)
(-301.054 -114.238 0)
(56.045 -284.595 0)
(642.121 -533.456 0)
(1417.72 -825.354 0)
(2293.34 -1104.88 0)
(3167.59 -1324.74 0)
(3962.18 -1463.89 0)
(4636.03 -1526.76 0)
(5180.37 -1531.79 0)
(5606.21 -1500.15 0)
(5932.94 -1449.51 0)
(6181.08 -1392.15 0)
(6368.8 -1335.58 0)
(6510.83 -1283.76 0)
(6618.59 -1238.38 0)
(6700.65 -1199.8 0)
(6763.43 -1167.65 0)
(6811.67 -1141.23 0)
(6848.89 -1119.75 0)
(6877.71 -1102.41 0)
(6900.1 -1088.49 0)
(6917.54 -1077.37 0)
(6930.76 -1068.76 0)
(6941.88 -1061.4 0)
(6952.93 -1053.98 0)
(6963.9 -1046.5 0)
(6974.79 -1038.97 0)
(6985.6 -1031.38 0)
(6996.34 -1023.73 0)
(7006.99 -1016.02 0)
(7017.56 -1008.25 0)
(7028.05 -1000.43 0)
(7038.46 -992.552 0)
(7048.79 -984.616 0)
(7059.03 -976.624 0)
(7069.19 -968.575 0)
(7079.26 -960.471 0)
(7089.25 -952.311 0)
(7099.16 -944.095 0)
(7108.97 -935.825 0)
(7118.7 -927.502 0)
(7128.35 -919.122 0)
(7137.9 -910.688 0)
(7147.37 -902.2 0)
(7156.75 -893.659 0)
(7166.04 -885.064 0)
(7175.24 -876.416 0)
(7184.35 -867.715 0)
(7193.37 -858.962 0)
(7202.29 -850.158 0)
(7211.13 -841.301 0)
(7219.87 -832.393 0)
(7228.51 -823.435 0)
(7237.07 -814.425 0)
(7245.53 -805.366 0)
(7253.89 -796.258 0)
(7262.16 -787.1 0)
(7270.33 -777.893 0)
(7278.41 -768.637 0)
(7286.34 -759.333 0)
(7294.21 -749.981 0)
(7302.03 -740.582 0)
(7309.72 -731.136 0)
(7317.3 -721.643 0)
(7324.79 -712.105 0)
(7332.18 -702.521 0)
(7339.47 -692.892 0)
(7346.65 -683.218 0)
(7353.74 -673.5 0)
(7360.72 -663.739 0)
(7367.6 -653.934 0)
(7374.38 -644.086 0)
(7381.06 -634.197 0)
(7387.63 -624.265 0)
(7394.1 -614.293 0)
(7400.46 -604.279 0)
(7406.72 -594.226 0)
(7412.88 -584.133 0)
(7418.93 -574 0)
(7424.87 -563.83 0)
(7430.7 -553.621 0)
(7436.43 -543.374 0)
(7442.05 -533.091 0)
(7447.57 -522.772 0)
(7452.98 -512.416 0)
(7458.27 -502.026 0)
(7463.46 -491.601 0)
(-27.4223 10.475 0)
(-84.4445 14.367 0)
(-149.031 21.5834 0)
(-225.042 32.0975 0)
(-311.69 44.7337 0)
(-403.162 53.4825 0)
(-486.171 39.4527 0)
(-536.883 -39.4801 0)
(-518.589 -249.461 0)
(-380.867 -657.731 0)
(-64.1045 -1290.69 0)
(481.985 -2102.09 0)
(1267.68 -2979.53 0)
(2243.77 -3789.16 0)
(3314.79 -4428.51 0)
(4376.17 -4855.07 0)
(5347.59 -5081.49 0)
(6185.7 -5151.8 0)
(6879.32 -5117.6 0)
(7437.63 -5023.6 0)
(7879.2 -4902.54 0)
(8224.88 -4775.58 0)
(8494.08 -4654.93 0)
(8703.28 -4546.63 0)
(8865.82 -4452.91 0)
(8992.24 -4373.78 0)
(9090.69 -4308.13 0)
(9167.48 -4254.33 0)
(9227.49 -4210.65 0)
(9274.43 -4175.43 0)
(9310.15 -4148 0)
(9340.28 -4124.44 0)
(9370.29 -4100.57 0)
(9400.16 -4076.4 0)
(9429.89 -4051.93 0)
(9459.48 -4027.16 0)
(9488.92 -4002.09 0)
(9518.21 -3976.71 0)
(9547.35 -3951.04 0)
(9576.34 -3925.06 0)
(9605.17 -3898.79 0)
(9633.85 -3872.21 0)
(9662.36 -3845.34 0)
(9690.7 -3818.16 0)
(9718.88 -3790.69 0)
(9746.89 -3762.92 0)
(9774.72 -3734.85 0)
(9802.38 -3706.48 0)
(9829.84 -3677.83 0)
(9857.14 -3648.87 0)
(9884.25 -3619.61 0)
(9911.18 -3590.06 0)
(9937.91 -3560.22 0)
(9964.45 -3530.08 0)
(9990.79 -3499.66 0)
(10016.9 -3468.94 0)
(10042.9 -3437.93 0)
(10068.6 -3406.63 0)
(10094.2 -3375.05 0)
(10119.5 -3343.18 0)
(10144.6 -3311.02 0)
(10169.5 -3278.58 0)
(10194.2 -3245.86 0)
(10218.6 -3212.86 0)
(10242.8 -3179.58 0)
(10266.9 -3146.02 0)
(10290.6 -3112.18 0)
(10314.2 -3078.07 0)
(10337.5 -3043.68 0)
(10360.5 -3009.03 0)
(10383.4 -2974.1 0)
(10406 -2938.91 0)
(10428.3 -2903.45 0)
(10450.4 -2867.72 0)
(10472.3 -2831.74 0)
(10493.9 -2795.49 0)
(10515.2 -2758.99 0)
(10536.3 -2722.23 0)
(10557.1 -2685.21 0)
(10577.7 -2647.95 0)
(10598 -2610.44 0)
(10618 -2572.68 0)
(10637.8 -2534.68 0)
(10657.3 -2496.43 0)
(10676.5 -2457.95 0)
(10695.4 -2419.23 0)
(10714.1 -2380.28 0)
(10732.4 -2341.1 0)
(10750.5 -2301.69 0)
(10768.3 -2262.05 0)
(10785.8 -2222.19 0)
(10803.1 -2182.11 0)
(10820 -2141.82 0)
(10836.6 -2101.31 0)
(10853 -2060.59 0)
(-27.1953 15.0159 0)
(-83.6835 20.5814 0)
(-147.509 30.8945 0)
(-222.533 45.9517 0)
(-308.731 64.4045 0)
(-403.804 79.337 0)
(-505.15 69.449 0)
(-612.371 -12.4986 0)
(-725.823 -243.78 0)
(-834.03 -717.205 0)
(-891.261 -1509.13 0)
(-803.974 -2641.95 0)
(-451.082 -4056.21 0)
(260.065 -5611.36 0)
(1337.8 -7124.68 0)
(2694.57 -8432.96 0)
(4186.47 -9440.56 0)
(5669.83 -10130.3 0)
(7039.55 -10542.5 0)
(8238.99 -10743.3 0)
(9251.06 -10800.4 0)
(10083.7 -10769.7 0)
(10757.3 -10692.1 0)
(11296.4 -10594.5 0)
(11724.8 -10493.6 0)
(12064 -10398.3 0)
(12331.7 -10313.2 0)
(12542.7 -10239.8 0)
(12709 -10177.8 0)
(12840 -10126.4 0)
(12940.1 -10085.6 0)
(13024.9 -10049.9 0)
(13109.7 -10013.3 0)
(13194.3 -9975.71 0)
(13278.9 -9937.1 0)
(13363.4 -9897.49 0)
(13447.7 -9856.87 0)
(13532 -9815.23 0)
(13616 -9772.58 0)
(13700 -9728.9 0)
(13783.7 -9684.2 0)
(13867.3 -9638.46 0)
(13950.7 -9591.68 0)
(14033.9 -9543.86 0)
(14116.9 -9494.99 0)
(14199.7 -9445.07 0)
(14282.2 -9394.1 0)
(14364.5 -9342.06 0)
(14446.4 -9288.99 0)
(14528.2 -9234.83 0)
(14609.6 -9179.6 0)
(14690.8 -9123.3 0)
(14771.6 -9065.93 0)
(14852.1 -9007.48 0)
(14932.3 -8947.96 0)
(15012.1 -8887.36 0)
(15091.6 -8825.67 0)
(15170.6 -8762.9 0)
(15249.3 -8699.05 0)
(15327.6 -8634.12 0)
(15405.5 -8568.1 0)
(15482.9 -8500.99 0)
(15559.9 -8432.8 0)
(15636.4 -8363.54 0)
(15712.5 -8293.18 0)
(15788 -8221.74 0)
(15863.1 -8149.22 0)
(15937.7 -8075.62 0)
(16011.7 -8000.94 0)
(16085.2 -7925.19 0)
(16158.2 -7848.35 0)
(16230.5 -7770.45 0)
(16302.3 -7691.49 0)
(16373.5 -7611.45 0)
(16444.2 -7530.36 0)
(16514.1 -7448.21 0)
(16583.5 -7365 0)
(16652.2 -7280.75 0)
(16720.2 -7195.46 0)
(16787.6 -7109.13 0)
(16854.3 -7021.77 0)
(16920.3 -6933.38 0)
(16985.5 -6843.97 0)
(17050.1 -6753.55 0)
(17113.9 -6662.13 0)
(17176.9 -6569.7 0)
(17239.2 -6476.28 0)
(17300.7 -6381.89 0)
(17361.4 -6286.52 0)
(17421.3 -6190.18 0)
(17480.4 -6092.89 0)
(17538.6 -5994.66 0)
(17596 -5895.48 0)
(17652.6 -5795.38 0)
(17708.3 -5694.37 0)
(-26.9935 18.1477 0)
(-83.0075 24.8587 0)
(-146.155 37.2867 0)
(-220.275 55.4606 0)
(-305.851 78.079 0)
(-402.959 98.436 0)
(-516.162 96.4368 0)
(-661.159 28.357 0)
(-866.547 -178.235 0)
(-1161.1 -618.425 0)
(-1544.99 -1395.38 0)
(-1957.45 -2599.59 0)
(-2262.82 -4276.99 0)
(-2275.04 -6390.38 0)
(-1823.11 -8798.64 0)
(-827.707 -11281.8 0)
(660.654 -13607.8 0)
(2486.83 -15602.3 0)
(4456.4 -17183.8 0)
(6396.93 -18355.7 0)
(8189.27 -19175.1 0)
(9770.04 -19719.2 0)
(11119.4 -20063.4 0)
(12245 -20270.4 0)
(13168.7 -20387.4 0)
(13918.2 -20447.8 0)
(14521.5 -20474 0)
(15004.3 -20480.6 0)
(15389.2 -20476.7 0)
(15695 -20467.8 0)
(15930.6 -20457.3 0)
(16131.3 -20446.1 0)
(16332.9 -20432.6 0)
(16535.4 -20416.7 0)
(16738.6 -20398.3 0)
(16942.6 -20377.6 0)
(17147.3 -20354.3 0)
(17352.8 -20328.5 0)
(17558.9 -20300.1 0)
(17765.7 -20269.1 0)
(17973 -20235.5 0)
(18181 -20199.2 0)
(18389.4 -20160.2 0)
(18598.4 -20118.4 0)
(18807.8 -20073.9 0)
(19017.7 -20026.5 0)
(19228 -19976.3 0)
(19438.6 -19923.2 0)
(19649.5 -19867.2 0)
(19860.7 -19808.2 0)
(20072.1 -19746.3 0)
(20283.8 -19681.3 0)
(20495.6 -19613.3 0)
(20707.5 -19542.2 0)
(20919.4 -19468 0)
(21131.4 -19390.6 0)
(21343.3 -19310.1 0)
(21555.2 -19226.4 0)
(21767 -19139.4 0)
(21978.5 -19049.2 0)
(22189.9 -18955.8 0)
(22401 -18859 0)
(22611.8 -18758.9 0)
(22822.1 -18655.5 0)
(23032.1 -18548.6 0)
(23241.6 -18438.4 0)
(23450.6 -18324.8 0)
(23659 -18207.8 0)
(23866.8 -18087.3 0)
(24073.8 -17963.3 0)
(24280.2 -17835.9 0)
(24485.7 -17705 0)
(24690.4 -17570.6 0)
(24894.2 -17432.6 0)
(25097 -17291.2 0)
(25298.8 -17146.2 0)
(25499.5 -16997.6 0)
(25699.1 -16845.6 0)
(25897.5 -16689.9 0)
(26094.6 -16530.7 0)
(26290.4 -16368 0)
(26484.9 -16201.7 0)
(26677.9 -16031.9 0)
(26869.4 -15858.6 0)
(27059.3 -15681.6 0)
(27247.7 -15501.2 0)
(27434.3 -15317.3 0)
(27619.3 -15129.8 0)
(27802.4 -14938.8 0)
(27983.7 -14744.4 0)
(28163.1 -14546.5 0)
(28340.5 -14345.1 0)
(28515.9 -14140.4 0)
(28689.2 -13932.2 0)
(28860.3 -13720.6 0)
(-26.8324 20.31 0)
(-82.4678 27.8068 0)
(-145.074 41.6825 0)
(-218.455 61.9949 0)
(-303.407 87.5523 0)
(-401.471 112.176 0)
(-521.568 117.905 0)
(-689.166 66.7499 0)
(-950.791 -103.616 0)
(-1364.34 -477.875 0)
(-1973.72 -1159.59 0)
(-2776.01 -2267.41 0)
(-3692.9 -3919.94 0)
(-4559.95 -6199.01 0)
(-5148.94 -9097.96 0)
(-5230.82 -12485.6 0)
(-4658.43 -16119.3 0)
(-3423.54 -19710.2 0)
(-1653.11 -23006.2 0)
(447.508 -25847.7 0)
(2664.54 -28177 0)
(4824.74 -30015 0)
(6813.94 -31426.6 0)
(8572.58 -32491.7 0)
(10082.2 -33287.2 0)
(11350.5 -33879 0)
(12399.3 -34319 0)
(13256.7 -34647.3 0)
(13951.3 -34893.2 0)
(14510.6 -35078.6 0)
(14945.5 -35215 0)
(15319.3 -35327.2 0)
(15697.4 -35435.7 0)
(16079.9 -35540.5 0)
(16466.5 -35641.4 0)
(16857.3 -35738.2 0)
(17252.4 -35830.9 0)
(17651.5 -35919.4 0)
(18054.7 -36003.4 0)
(18462.1 -36082.8 0)
(18873.4 -36157.6 0)
(19288.7 -36227.5 0)
(19707.9 -36292.5 0)
(20131 -36352.3 0)
(20557.9 -36406.9 0)
(20988.6 -36456.2 0)
(21423 -36499.8 0)
(21860.9 -36537.9 0)
(22302.4 -36570 0)
(22747.4 -36596.2 0)
(23195.8 -36616.3 0)
(23647.6 -36630.2 0)
(24102.5 -36637.6 0)
(24560.7 -36638.4 0)
(25021.9 -36632.6 0)
(25486 -36619.9 0)
(25953 -36600.2 0)
(26422.7 -36573.3 0)
(26895 -36539.2 0)
(27369.9 -36497.6 0)
(27847.1 -36448.4 0)
(28326.6 -36391.5 0)
(28808.3 -36326.7 0)
(29291.8 -36253.9 0)
(29777.3 -36172.9 0)
(30264.6 -36083.7 0)
(30753.4 -35986 0)
(31243.6 -35879.7 0)
(31735.1 -35764.8 0)
(32227.8 -35641 0)
(32721.4 -35508.3 0)
(33215.8 -35366.5 0)
(33710.7 -35215.5 0)
(34206.2 -35055.2 0)
(34701.8 -34885.5 0)
(35197.6 -34706.2 0)
(35693.2 -34517.4 0)
(36188.6 -34318.8 0)
(36683.4 -34110.3 0)
(37177.6 -33892 0)
(37670.8 -33663.7 0)
(38162.9 -33425.2 0)
(38653.8 -33176.7 0)
(39143.1 -32917.9 0)
(39630.6 -32648.8 0)
(40116.3 -32369.4 0)
(40599.7 -32079.6 0)
(41080.8 -31779.4 0)
(41559.2 -31468.7 0)
(42034.8 -31147.6 0)
(42507.3 -30815.9 0)
(42976.5 -30473.8 0)
(43442.2 -30121 0)
(43904.1 -29757.8 0)
(44361.9 -29384.1 0)
(-26.7104 21.8052 0)
(-82.0592 29.8425 0)
(-144.255 44.7121 0)
(-217.069 66.4946 0)
(-301.482 94.1074 0)
(-399.923 121.899 0)
(-523.89 133.93 0)
(-704.546 97.5714 0)
(-998.969 -39.4829 0)
(-1483.2 -348.48 0)
(-2231.72 -921.004 0)
(-3290.22 -1874.29 0)
(-4648.01 -3350.49 0)
(-6214.24 -5496.73 0)
(-7808.25 -8420.17 0)
(-9180.24 -12130.7 0)
(-10069.8 -16501.1 0)
(-10285.5 -21275.1 0)
(-9766.26 -26129.4 0)
(-8591.36 -30758.4 0)
(-6938.23 -34938.8 0)
(-5018.55 -38552.5 0)
(-3024.28 -41573.8 0)
(-1099.7 -44039.1 0)
(664.24 -46017.1 0)
(2222.04 -47586.8 0)
(3560.49 -48823.9 0)
(4687.4 -49795 0)
(5621.77 -50556 0)
(6387.61 -51151.8 0)
(6991.3 -51605 0)
(7516.28 -51987.1 0)
(8052.71 -52367.1 0)
(8600.53 -52744.5 0)
(9159.84 -53119.2 0)
(9730.75 -53490.7 0)
(10313.4 -53858.9 0)
(10907.8 -54223.4 0)
(11514 -54584 0)
(12132.3 -54940.4 0)
(12762.6 -55292.2 0)
(13404.9 -55639.2 0)
(14059.5 -55980.9 0)
(14726.3 -56317.1 0)
(15405.3 -56647.4 0)
(16096.6 -56971.4 0)
(16800.3 -57288.8 0)
(17516.3 -57599.2 0)
(18244.4 -57902.1 0)
(18985.1 -58197.3 0)
(19738.2 -58484.3 0)
(20503.6 -58762.8 0)
(21281.2 -59032.2 0)
(22071.1 -59292.2 0)
(22873.2 -59542.2 0)
(23687.4 -59782 0)
(24513.6 -60010.9 0)
(25351.7 -60228.6 0)
(26201.7 -60434.6 0)
(27063.3 -60628.4 0)
(27936.4 -60809.6 0)
(28821 -60977.6 0)
(29716.7 -61131.9 0)
(30623.4 -61272.2 0)
(31540.9 -61397.7 0)
(32469 -61508.2 0)
(33407.5 -61603 0)
(34356.1 -61681.7 0)
(35314.5 -61743.7 0)
(36282.4 -61788.6 0)
(37259.5 -61815.7 0)
(38245.4 -61824.7 0)
(39239.8 -61815 0)
(40242.4 -61786.1 0)
(41252.8 -61737.5 0)
(42270.4 -61668.7 0)
(43295.1 -61579.3 0)
(44326.1 -61468.6 0)
(45363.2 -61336.3 0)
(46405.7 -61181.9 0)
(47453.3 -61005 0)
(48505.3 -60805 0)
(49561.3 -60581.5 0)
(50620.6 -60334.2 0)
(51682.7 -60062.6 0)
(52747.1 -59766.3 0)
(53813 -59444.9 0)
(54879.8 -59098.2 0)
(55946.9 -58725.7 0)
(57013.6 -58327.1 0)
(58079.2 -57902.2 0)
(59143.1 -57450.6 0)
(60204.5 -56972.1 0)
(61262.6 -56466.6 0)
(62316.9 -55933.8 0)
(-26.6207 22.8404 0)
(-81.7593 31.2504 0)
(-143.653 46.8046 0)
(-216.046 69.5999 0)
(-300.032 98.6438 0)
(-398.576 128.719 0)
(-524.711 145.508 0)
(-712.91 120.663 0)
(-1026.33 10.0715 0)
(-1551.68 -245.44 0)
(-2382.39 -723.094 0)
(-3596.93 -1526.94 0)
(-5236.33 -2794.46 0)
(-7280.03 -4689.49 0)
(-9624.13 -7372.75 0)
(-12074.6 -10951.6 0)
(-14370.9 -15424.7 0)
(-16242.9 -20648.8 0)
(-17483.3 -26352.6 0)
(-18001.9 -32197.5 0)
(-17836.8 -37856.7 0)
(-17122.7 -43077.3 0)
(-16038.1 -47707.2 0)
(-14758.3 -51687.9 0)
(-13425.9 -55030.2 0)
(-12141.3 -57788.2 0)
(-10965.3 -60034.5 0)
(-9927.62 -61847.3 0)
(-9036.1 -63300.7 0)
(-8285.29 -64460.4 0)
(-7681.27 -65356 0)
(-7146.8 -66120.1 0)
(-6592.72 -66888.9 0)
(-6018.73 -67662 0)
(-5424.35 -68439 0)
(-4809.13 -69219.6 0)
(-4172.57 -70003.4 0)
(-3514.21 -70790.1 0)
(-2833.58 -71579.4 0)
(-2130.2 -72370.7 0)
(-1403.6 -73163.6 0)
(-653.323 -73957.8 0)
(121.121 -74752.6 0)
(920.175 -75547.7 0)
(1744.31 -76342.4 0)
(2593.96 -77136.2 0)
(3469.59 -77928.4 0)
(4371.61 -78718.5 0)
(5300.16 -79505.6 0)
(6256.25 -80289.4 0)
(7239.97 -81069 0)
(8251.72 -81843.7 0)
(9291.86 -82612.6 0)
(10360.8 -83375 0)
(11458.7 -84129.9 0)
(12586.1 -84876.6 0)
(13743.2 -85614.1 0)
(14930.2 -86341.4 0)
(16147.4 -87057.6 0)
(17395 -87761.7 0)
(18673.2 -88452.5 0)
(19982.1 -89129.1 0)
(21321.9 -89790.2 0)
(22692.4 -90434.7 0)
(24094.1 -91061.5 0)
(25526.7 -91669.3 0)
(26990.3 -92257 0)
(28484.7 -92823.1 0)
(30009.8 -93366.5 0)
(31565.5 -93885.8 0)
(33151.6 -94379.5 0)
(34767.5 -94846.4 0)
(36413.2 -95285 0)
(38088.2 -95694 0)
(39792 -96071.7 0)
(41524.1 -96416.9 0)
(43284 -96728 0)
(45071 -97003.5 0)
(46884.3 -97242 0)
(48723.3 -97441.9 0)
(50587 -97601.7 0)
(52474.7 -97720 0)
(54385.2 -97795.3 0)
(56317.6 -97826.1 0)
(58270.6 -97810.9 0)
(60243.3 -97748.3 0)
(62234.2 -97636.8 0)
(64242 -97475.1 0)
(66265.3 -97261.8 0)
(68302.8 -96995.6 0)
(70352.6 -96675.2 0)
(72413.3 -96299.3 0)
(74483.3 -95866.7 0)
(76560.7 -95376.4 0)
(78643.7 -94827.3 0)
(-26.5561 23.5579 0)
(-81.5431 32.2255 0)
(-143.22 48.2523 0)
(-215.308 71.7469 0)
(-298.968 101.785 0)
(-397.502 133.48 0)
(-524.872 153.732 0)
(-717.502 137.389 0)
(-1042.07 46.5283 0)
(-1591.49 -168.501 0)
(-2470.45 -572.304 0)
(-3777.78 -1254.01 0)
(-5588.58 -2336.65 0)
(-7933.28 -3976.97 0)
(-10773.4 -6347.47 0)
(-13982.8 -9598.44 0)
(-17348.4 -13806.5 0)
(-20601.4 -18928.5 0)
(-23475 -24784.3 0)
(-25766.8 -31083 0)
(-27380.9 -37485.5 0)
(-28332.2 -43673.3 0)
(-28718.5 -49402 0)
(-28679.1 -54520.3 0)
(-28357 -58964.3 0)
(-27874.9 -62737.7 0)
(-27325.8 -65885.9 0)
(-26772.9 -68477.9 0)
(-26254.2 -70590.3 0)
(-25789.6 -72298.6 0)
(-25399.3 -73632.2 0)
(-25041.4 -74779.3 0)
(-24659.6 -75943.1 0)
(-24253 -77123.2 0)
(-23820.8 -78319.5 0)
(-23361.9 -79532 0)
(-22875.4 -80760.4 0)
(-22360.2 -82004.6 0)
(-21815.3 -83264.4 0)
(-21239.5 -84539.5 0)
(-20631.9 -85829.7 0)
(-19991.3 -87134.6 0)
(-19316.6 -88453.9 0)
(-18606.5 -89787.1 0)
(-17859.9 -91133.9 0)
(-17075.7 -92493.6 0)
(-16252.5 -93865.8 0)
(-15389.2 -95249.8 0)
(-14484.9 -96644.5 0)
(-13537.6 -98050 0)
(-12546.3 -99465.2 0)
(-11509.9 -100889 0)
(-10427 -102321 0)
(-9296.39 -103759 0)
(-8116.72 -105204 0)
(-6886.72 -106652 0)
(-5605.14 -108105 0)
(-4270.71 -109559 0)
(-2882.2 -111013 0)
(-1438.36 -112467 0)
(61.9715 -113919 0)
(1620 -115366 0)
(3236.81 -116807 0)
(4913.26 -118240 0)
(6650.86 -119663 0)
(8450.4 -121075 0)
(10312.9 -122472 0)
(12239 -123853 0)
(14229.7 -125215 0)
(16285.7 -126556 0)
(18407.5 -127873 0)
(20595.8 -129164 0)
(22850.9 -130425 0)
(25173.2 -131654 0)
(27562.9 -132848 0)
(30020.1 -134003 0)
(32544.8 -135117 0)
(35136.7 -136186 0)
(37795.5 -137208 0)
(40520.9 -138178 0)
(43312.1 -139092 0)
(46168.3 -139949 0)
(49088.6 -140743 0)
(52071.8 -141472 0)
(55116.5 -142132 0)
(58221.3 -142718 0)
(61384.4 -143228 0)
(64603.7 -143658 0)
(67877.3 -144004 0)
(71202.9 -144262 0)
(74577.7 -144429 0)
(77999.1 -144500 0)
(81464.2 -144474 0)
(84969.7 -144346 0)
(88512.1 -144113 0)
(-26.5101 24.0556 0)
(-81.3891 32.9016 0)
(-142.911 49.2552 0)
(-214.781 73.2336 0)
(-298.201 103.963 0)
(-396.688 136.797 0)
(-524.777 159.521 0)
(-720.076 149.295 0)
(-1051.34 72.6961 0)
(-1615.12 -112.844 0)
(-2522.79 -462.058 0)
(-3885.49 -1051.19 0)
(-5799.68 -1988.06 0)
(-8329.2 -3415 0)
(-11481.8 -5497.73 0)
(-15186 -8396.87 0)
(-19279.6 -12224.7 0)
(-23523.6 -16998.8 0)
(-27642.4 -22612.7 0)
(-31381.4 -28840.1 0)
(-34557.4 -35375.1 0)
(-37085.5 -41893.5 0)
(-38974.5 -48111.4 0)
(-40300.1 -53820.6 0)
(-41171.2 -58899.1 0)
(-41702.2 -63302.5 0)
(-41994.3 -67042.2 0)
(-42128.9 -70167.3 0)
(-42165.7 -72745.6 0)
(-42146.4 -74851.5 0)
(-42100.6 -76508.9 0)
(-42037.4 -77943.2 0)
(-41952 -79407.6 0)
(-41843.4 -80901.8 0)
(-41710.3 -82426.5 0)
(-41551.2 -83981.8 0)
(-41364.8 -85568.2 0)
(-41149.6 -87186 0)
(-40904.2 -88835.5 0)
(-40626.8 -90516.9 0)
(-40315.8 -92230.5 0)
(-39969.6 -93976.4 0)
(-39586.3 -95754.9 0)
(-39164.1 -97565.9 0)
(-38701.1 -99409.6 0)
(-38195.2 -101286 0)
(-37644.5 -103195 0)
(-37046.8 -105136 0)
(-36400.1 -107109 0)
(-35701.8 -109114 0)
(-34949.7 -111151 0)
(-34141.4 -113219 0)
(-33274.5 -115318 0)
(-32346.4 -117446 0)
(-31354.6 -119603 0)
(-30296.4 -121789 0)
(-29169.1 -124001 0)
(-27970 -126239 0)
(-26696.4 -128502 0)
(-25345.3 -130787 0)
(-23914 -133094 0)
(-22399.5 -135421 0)
(-20799 -137765 0)
(-19109.8 -140124 0)
(-17328.6 -142496 0)
(-15452.7 -144879 0)
(-13479.2 -147269 0)
(-11405.3 -149664 0)
(-9228.37 -152059 0)
(-6945.47 -154453 0)
(-4554.09 -156841 0)
(-2051.8 -159218 0)
(563.886 -161582 0)
(3295.34 -163926 0)
(6144.51 -166248 0)
(9113.45 -168541 0)
(12204 -170800 0)
(15417.6 -173021 0)
(18755.6 -175197 0)
(22219.2 -177322 0)
(25809 -179390 0)
(29525.6 -181395 0)
(33369.4 -183331 0)
(37340.1 -185190 0)
(41437.1 -186965 0)
(45660 -188650 0)
(50007.2 -190237 0)
(54477 -191719 0)
(59067.5 -193088 0)
(63776.4 -194337 0)
(68600.5 -195459 0)
(73536.4 -196445 0)
(78580.5 -197288 0)
(83728.2 -197981 0)
(88974.8 -198516 0)
(-26.4776 24.4011 0)
(-81.2803 33.3707 0)
(-142.693 49.9508 0)
(-214.408 74.2642 0)
(-297.656 105.473 0)
(-396.088 139.105 0)
(-524.609 163.576 0)
(-721.558 157.689 0)
(-1056.95 91.2338 0)
(-1629.52 -73.2476 0)
(-2554.64 -383.161 0)
(-3950.98 -904.728 0)
(-5928.19 -1732.91 0)
(-8571.36 -2995.67 0)
(-11918.8 -4846.6 0)
(-15937.4 -7442.69 0)
(-20505.1 -10908 0)
(-25414.2 -15291.3 0)
(-30399.2 -20533 0)
(-35185.6 -26458.5 0)
(-39541.9 -32803.4 0)
(-43316.1 -39262.8 0)
(-46446.7 -45547.7 0)
(-48949.5 -51426.3 0)
(-50892 -56743.7 0)
(-52366.2 -61422.4 0)
(-53467.4 -65446.3 0)
(-54282 -68844.8 0)
(-54881.7 -71673.5 0)
(-55323 -74000.9 0)
(-55639.5 -75843.4 0)
(-55890.7 -77445.1 0)
(-56126.1 -79087.7 0)
(-56344.3 -80771.8 0)
(-56543.8 -82498.3 0)
(-56723.3 -84268.1 0)
(-56881.2 -86082.3 0)
(-57015.9 -87941.8 0)
(-57125.6 -89847.5 0)
(-57208.5 -91800.5 0)
(-57262.7 -93801.6 0)
(-57286.1 -95851.8 0)
(-57276.7 -97951.9 0)
(-57232.1 -100103 0)
(-57150 -102306 0)
(-57027.9 -104561 0)
(-56863.1 -106869 0)
(-56652.9 -109232 0)
(-56394.5 -111648 0)
(-56084.6 -114120 0)
(-55720.3 -116648 0)
(-55298.1 -119232 0)
(-54814.6 -121873 0)
(-54266.1 -124569 0)
(-53648.9 -127323 0)
(-52959 -130133 0)
(-52192.5 -132999 0)
(-51344.9 -135922 0)
(-50412 -138899 0)
(-49389.2 -141931 0)
(-48271.8 -145017 0)
(-47055 -148155 0)
(-45734 -151344 0)
(-44303.8 -154581 0)
(-42758.8 -157866 0)
(-41094 -161196 0)
(-39304 -164567 0)
(-37383.5 -167977 0)
(-35326.9 -171423 0)
(-33128.6 -174901 0)
(-30783.3 -178405 0)
(-28285.5 -181933 0)
(-25629.8 -185478 0)
(-22810.7 -189035 0)
(-19823.2 -192599 0)
(-16662.2 -196161 0)
(-13322.6 -199717 0)
(-9799.96 -203257 0)
(-6089.87 -206774 0)
(-2188.12 -210260 0)
(1908.77 -213705 0)
(6204.24 -217101 0)
(10701.3 -220436 0)
(15402.1 -223701 0)
(20308.5 -226885 0)
(25422.1 -229977 0)
(30743.4 -232965 0)
(36272.2 -235837 0)
(42008.1 -238580 0)
(47949.7 -241184 0)
(54094.6 -243633 0)
(60440.1 -245917 0)
(66982.6 -248021 0)
(73717.2 -249933 0)
(80638.7 -251639 0)
(-26.4547 24.641 0)
(-81.2038 33.6964 0)
(-142.539 50.4335 0)
(-214.145 74.9792 0)
(-297.27 106.521 0)
(-395.655 140.71 0)
(-524.442 166.407 0)
(-722.437 163.575 0)
(-1060.44 104.27 0)
(-1638.52 -45.3338 0)
(-2574.53 -327.355 0)
(-3991.76 -800.587 0)
(-6008.14 -1550.07 0)
(-8722.2 -2691.83 0)
(-12192.1 -4367.58 0)
(-16410.3 -6726.49 0)
(-21283.5 -9893.84 0)
(-26628.7 -13932.6 0)
(-32193.7 -18810.9 0)
(-37698.6 -24389.5 0)
(-42886.2 -30438.3 0)
(-47562 -36676.8 0)
(-51616.1 -42825.3 0)
(-55018 -48646.8 0)
(-57799.2 -53971.6 0)
(-60028.7 -58703.7 0)
(-61790.7 -62808.8 0)
(-63170.4 -66301.5 0)
(-64244.8 -69226.5 0)
(-65079.1 -71645.4 0)
(-65708.1 -73568.3 0)
(-66232.8 -75245.2 0)
(-66749.4 -76970.5 0)
(-67256.4 -78745.2 0)
(-67752.5 -80570.8 0)
(-68236.5 -82448.7 0)
(-68706.8 -84380.6 0)
(-69161.9 -86368 0)
(-69600.1 -88412.4 0)
(-70019.6 -90515.6 0)
(-70418.4 -92679.1 0)
(-70794.7 -94904.6 0)
(-71146 -97193.8 0)
(-71470.2 -99548.4 0)
(-71764.7 -101970 0)
(-72026.8 -104460 0)
(-72253.6 -107021 0)
(-72442.3 -109654 0)
(-72589.5 -112360 0)
(-72691.8 -115142 0)
(-72745.6 -118001 0)
(-72747.1 -120938 0)
(-72692.1 -123955 0)
(-72576.4 -127054 0)
(-72395.3 -130235 0)
(-72144.1 -133499 0)
(-71817.6 -136848 0)
(-71410.4 -140283 0)
(-70917 -143804 0)
(-70331.5 -147411 0)
(-69647.5 -151105 0)
(-68858.7 -154886 0)
(-67958.3 -158753 0)
(-66939.3 -162705 0)
(-65794.2 -166743 0)
(-64515.6 -170864 0)
(-63095.5 -175067 0)
(-61525.9 -179349 0)
(-59798.5 -183708 0)
(-57904.8 -188140 0)
(-55836.1 -192642 0)
(-53583.7 -197208 0)
(-51138.6 -201834 0)
(-48492 -206514 0)
(-45634.8 -211241 0)
(-42558.3 -216008 0)
(-39253.4 -220807 0)
(-35711.7 -225629 0)
(-31924.9 -230465 0)
(-27884.6 -235302 0)
(-23583.5 -240131 0)
(-19014.1 -244939 0)
(-14169.7 -249713 0)
(-9044.41 -254439 0)
(-3632.8 -259102 0)
(2069.95 -263687 0)
(8067.4 -268177 0)
(14362.2 -272557 0)
(20956.2 -276807 0)
(27850.7 -280912 0)
(35044.6 -284851 0)
(42536.8 -288607 0)
(50324.9 -292161 0)
(58404.3 -295492 0)
(66770.2 -298582 0)
(-26.4387 24.8077 0)
(-81.1502 33.9226 0)
(-142.432 50.7686 0)
(-213.961 75.4756 0)
(-296.998 107.249 0)
(-395.346 141.826 0)
(-524.302 168.381 0)
(-722.975 167.69 0)
(-1062.67 113.399 0)
(-1644.29 -25.7589 0)
(-2587.24 -288.141 0)
(-4017.76 -727.179 0)
(-6059 -1420.58 0)
(-8818.14 -2475.2 0)
(-12366.1 -4022.96 0)
(-16712.5 -6205.07 0)
(-21783.5 -9144.21 0)
(-27414.1 -12909.4 0)
(-33363.5 -17484.4 0)
(-39351.8 -22753.1 0)
(-45107.5 -28511 0)
(-50410.5 -34498.6 0)
(-55117.8 -40448.8 0)
(-59166.6 -46127.5 0)
(-62560.7 -51360.2 0)
(-65350.1 -56041.2 0)
(-67608.3 -60125.8 0)
(-69417.1 -63618.2 0)
(-70855.2 -66555.3 0)
(-71993.3 -68992.6 0)
(-72865.1 -70935.8 0)
(-73603.8 -72634 0)
(-74341.3 -74385.2 0)
(-75076.5 -76190.7 0)
(-75808.3 -78052.3 0)
(-76535.4 -79971.9 0)
(-77256.7 -81951.6 0)
(-77970.7 -83993.4 0)
(-78676 -86099.4 0)
(-79371 -88271.7 0)
(-80053.8 -90512.5 0)
(-80722.7 -92824.2 0)
(-81375.5 -95209.1 0)
(-82010.1 -97669.5 0)
(-82623.9 -100208 0)
(-83214.5 -102827 0)
(-83779 -105528 0)
(-84314.5 -108315 0)
(-84817.5 -111190 0)
(-85284.9 -114155 0)
(-85712.7 -117214 0)
(-86097 -120369 0)
(-86433.4 -123622 0)
(-86717.2 -126976 0)
(-86943.6 -130433 0)
(-87107.3 -133995 0)
(-87202.6 -137666 0)
(-87223.4 -141447 0)
(-87163.4 -145341 0)
(-87015.7 -149348 0)
(-86773.2 -153472 0)
(-86428.1 -157712 0)
(-85972.3 -162072 0)
(-85397.5 -166550 0)
(-84694.3 -171148 0)
(-83853.5 -175866 0)
(-82865.1 -180704 0)
(-81718.8 -185660 0)
(-80403.8 -190734 0)
(-78908.8 -195922 0)
(-77222.4 -201223 0)
(-75332.7 -206631 0)
(-73227.3 -212144 0)
(-70893.8 -217756 0)
(-68319.5 -223459 0)
(-65491.6 -229248 0)
(-62397.2 -235113 0)
(-59023.4 -241045 0)
(-55357.7 -247033 0)
(-51387.3 -253066 0)
(-47100.3 -259129 0)
(-42485.1 -265209 0)
(-37530.3 -271290 0)
(-32226 -277355 0)
(-26562.5 -283386 0)
(-20531 -289363 0)
(-14124.3 -295266 0)
(-7336.49 -301073 0)
(-162.377 -306763 0)
(7401.7 -312311 0)
(15357.2 -317695 0)
(23704.8 -322889 0)
(32443.5 -327868 0)
(41569.8 -332607 0)
(51079.3 -337081 0)
(-26.4275 24.9235 0)
(-81.1128 34.0797 0)
(-142.357 51.0014 0)
(-213.833 75.8203 0)
(-296.808 107.755 0)
(-395.127 142.602 0)
(-524.192 169.756 0)
(-723.313 170.561 0)
(-1064.12 119.775 0)
(-1648.06 -12.0747 0)
(-2595.53 -260.694 0)
(-4034.67 -675.698 0)
(-6092.03 -1329.5 0)
(-8880.38 -2322.21 0)
(-12479.1 -3778.2 0)
(-16909 -5832.01 0)
(-22109.4 -8602.88 0)
(-27928.1 -12162 0)
(-34132.9 -16502.2 0)
(-40445.3 -21522.5 0)
(-46585.9 -27036.1 0)
(-52318.2 -32800 0)
(-57477.9 -38558.6 0)
(-61979.3 -44083.1 0)
(-65806.9 -49198.5 0)
(-68995.9 -53794.8 0)
(-71611.1 -57821 0)
(-73730.9 -61275 0)
(-75434.4 -64188.1 0)
(-76795.1 -66611.2 0)
(-77845.7 -68546.8 0)
(-78742.5 -70240.9 0)
(-79643.9 -71990.5 0)
(-80548.9 -73797.2 0)
(-81456.5 -75663 0)
(-82365.9 -77590.3 0)
(-83276 -79581.2 0)
(-84185.6 -81638.3 0)
(-85093.5 -83763.8 0)
(-85998.3 -85960.5 0)
(-86898.4 -88230.9 0)
(-87792.2 -90577.7 0)
(-88677.8 -93003.7 0)
(-89553.1 -95512 0)
(-90416.1 -98105.3 0)
(-91264.2 -100787 0)
(-92094.9 -103560 0)
(-92905.3 -106427 0)
(-93692.1 -109392 0)
(-94452.4 -112458 0)
(-95182.2 -115629 0)
(-95877.6 -118908 0)
(-96534.4 -122299 0)
(-97147.7 -125805 0)
(-97712.6 -129430 0)
(-98223.7 -133177 0)
(-98675.1 -137049 0)
(-99060.4 -141051 0)
(-99372.9 -145185 0)
(-99605.2 -149455 0)
(-99749.6 -153864 0)
(-99797.5 -158414 0)
(-99740.2 -163109 0)
(-99568.1 -167950 0)
(-99270.9 -172940 0)
(-98837.9 -178081 0)
(-98257.6 -183374 0)
(-97518.1 -188818 0)
(-96606.6 -194415 0)
(-95509.8 -200164 0)
(-94213.6 -206062 0)
(-92703.7 -212109 0)
(-90964.9 -218299 0)
(-88981.5 -224630 0)
(-86737.8 -231095 0)
(-84217.2 -237688 0)
(-81403.1 -244400 0)
(-78278.9 -251223 0)
(-74827.5 -258144 0)
(-71032.3 -265151 0)
(-66877 -272230 0)
(-62345.4 -279365 0)
(-57422 -286538 0)
(-52092.4 -293729 0)
(-46342.7 -300919 0)
(-40160.2 -308083 0)
(-33533.9 -315198 0)
(-26454.3 -322239 0)
(-18913.1 -329177 0)
(-10903.9 -335986 0)
(-2422.96 -342636 0)
(6532.34 -349097 0)
(15962.4 -355339 0)
(25864.7 -361330 0)
(36235.3 -367040 0)
(-26.4197 25.004 0)
(-81.0866 34.1889 0)
(-142.304 51.1631 0)
(-213.743 76.0597 0)
(-296.675 108.106 0)
(-394.973 143.141 0)
(-524.111 170.714 0)
(-723.53 172.562 0)
(-1065.08 124.221 0)
(-1650.56 -2.52696 0)
(-2601.03 -241.529 0)
(-4045.87 -639.706 0)
(-6113.85 -1265.71 0)
(-8921.45 -2214.76 0)
(-12553.6 -3605.69 0)
(-17038.8 -5567.86 0)
(-22325 -8217.3 0)
(-28268.8 -11625.8 0)
(-34644.5 -15791.5 0)
(-41175 -20623.4 0)
(-47576.3 -25946.9 0)
(-53601.6 -31531 0)
(-59072.1 -37129.7 0)
(-63886.9 -42519.1 0)
(-68016.3 -47525.5 0)
(-71485.5 -52037.2 0)
(-74352.4 -55999.5 0)
(-76692.4 -59406.4 0)
(-78584.6 -62285.2 0)
(-80104.2 -64683.6 0)
(-81282.8 -66602 0)
(-82293 -68282.8 0)
(-83312.2 -70020.4 0)
(-84339.6 -71816.7 0)
(-85374.3 -73673.8 0)
(-86415.7 -75594.3 0)
(-87462.9 -77580.5 0)
(-88514.9 -79635.2 0)
(-89570.7 -81760.9 0)
(-90629.1 -83960.6 0)
(-91688.7 -86237.2 0)
(-92748.1 -88593.7 0)
(-93805.7 -91033.2 0)
(-94859.6 -93559.1 0)
(-95907.8 -96174.7 0)
(-96948.2 -98883.4 0)
(-97978.3 -101689 0)
(-98995.6 -104595 0)
(-99996.6 -107605 0)
(-100979 -110724 0)
(-101939 -113955 0)
(-102872 -117303 0)
(-103775 -120771 0)
(-104643 -124365 0)
(-105471 -128088 0)
(-106253 -131945 0)
(-106984 -135940 0)
(-107657 -140078 0)
(-108265 -144364 0)
(-108801 -148801 0)
(-109257 -153393 0)
(-109623 -158146 0)
(-109891 -163063 0)
(-110050 -168147 0)
(-110090 -173402 0)
(-109998 -178832 0)
(-109762 -184438 0)
(-109370 -190224 0)
(-108806 -196190 0)
(-108056 -202337 0)
(-107105 -208665 0)
(-105935 -215174 0)
(-104529 -221860 0)
(-102870 -228722 0)
(-100939 -235754 0)
(-98715.9 -242950 0)
(-96181.4 -250303 0)
(-93315.4 -257804 0)
(-90097.4 -265442 0)
(-86507 -273203 0)
(-82524.1 -281073 0)
(-78128.6 -289035 0)
(-73300.9 -297069 0)
(-68022.8 -305155 0)
(-62276.6 -313269 0)
(-56045.7 -321386 0)
(-49315.6 -329478 0)
(-42073.8 -337517 0)
(-34308.8 -345471 0)
(-26011.9 -353308 0)
(-17177 -360994 0)
(-7800.02 -368495 0)
(2120.7 -375776 0)
(12583.3 -382801 0)
(23584.2 -389533 0)
(-26.4143 25.0599 0)
(-81.0684 34.2648 0)
(-142.268 51.2755 0)
(-213.68 76.2261 0)
(-296.583 108.35 0)
(-394.865 143.516 0)
(-524.051 171.379 0)
(-723.673 173.955 0)
(-1065.73 127.318 0)
(-1652.24 4.12664 0)
(-2604.73 -228.166 0)
(-4053.37 -614.591 0)
(-6128.45 -1221.14 0)
(-8948.93 -2139.57 0)
(-12603.5 -3484.68 0)
(-17125.6 -5381.99 0)
(-22469.3 -7944.97 0)
(-28497.3 -11245.3 0)
(-34988.2 -15284.5 0)
(-41666.4 -19977.9 0)
(-48245.1 -25159.4 0)
(-54470.5 -30607 0)
(-60154.3 -36081.3 0)
(-65185.2 -41363 0)
(-69523.8 -46280 0)
(-73187.8 -50719.8 0)
(-76230.4 -54625.9 0)
(-78724.7 -57989.5 0)
(-80749.5 -60835.4 0)
(-82380.9 -63209.1 0)
(-83649.8 -65109.3 0)
(-84740.1 -66775.3 0)
(-85842.7 -68498.9 0)
(-86956.7 -70282 0)
(-88081.7 -72126.8 0)
(-89217 -74036.1 0)
(-90361.8 -76012.4 0)
(-91515.4 -78058.4 0)
(-92677 -80177.1 0)
(-93845.4 -82371.5 0)
(-95019.5 -84644.6 0)
(-96198 -86999.7 0)
(-97379.5 -89440.2 0)
(-98562.4 -91969.7 0)
(-99744.8 -94591.8 0)
(-100925 -97310.2 0)
(-102100 -100129 0)
(-103268 -103052 0)
(-104426 -106083 0)
(-105571 -109228 0)
(-106700 -112491 0)
(-107810 -115875 0)
(-108895 -119387 0)
(-109952 -123031 0)
(-110975 -126811 0)
(-111960 -130733 0)
(-112901 -134803 0)
(-113791 -139025 0)
(-114623 -143404 0)
(-115390 -147947 0)
(-116084 -152657 0)
(-116694 -157541 0)
(-117213 -162603 0)
(-117629 -167847 0)
(-117931 -173279 0)
(-118107 -178903 0)
(-118143 -184724 0)
(-118026 -190743 0)
(-117740 -196964 0)
(-117270 -203389 0)
(-116599 -210019 0)
(-115708 -216855 0)
(-114578 -223895 0)