/*--------------------------------*- C++ -*----------------------------------*\
  =========                 |
  \\      /  F ield         | OpenFOAM: The Open Source CFD Toolbox
   \\    /   O peration     | Website:  https://openfoam.org
    \\  /    A nd           | Version:  7
     \\/     M anipulation  |
\*---------------------------------------------------------------------------*/
FoamFile
{
    version     2.0;
    format      ascii;
    class       volVectorField;
    location    "0.3";
    object      qAir;
}
// * * * * * * * * * * * * * * * * * * * * * * * * * * * * * * * * * * * * * //

dimensions      [0 -1 0 1 0 0 0];

internalField   nonuniform List<vector> 
1600
(
(45.5209 3.91709e-05 -0)
(45.5207 9.67176e-05 -0)
(45.5203 0.000122712 -0)
(45.5198 0.000122223 -0)
(45.5191 9.95459e-05 -0)
(45.5184 5.92646e-05 -0)
(45.5178 8.56347e-06 -0)
(45.5175 -4.24178e-05 -0)
(45.5174 -8.18459e-05 -0)
(45.5175 -9.88725e-05 -0)
(45.5178 -8.72584e-05 -0)
(45.5183 -4.87978e-05 -0)
(45.5187 5.17448e-06 -0)
(45.5189 5.58179e-05 -0)
(45.5189 8.2904e-05 -0)
(45.5187 7.3573e-05 -0)
(45.5184 3.01323e-05 -0)
(45.5181 -2.77906e-05 -0)
(45.5179 -7.01781e-05 -0)
(45.518 -7.19135e-05 -0)
(45.5183 -2.96968e-05 -0)
(45.5185 3.0747e-05 -0)
(45.5186 6.67424e-05 -0)
(45.5185 4.81992e-05 -0)
(45.5183 -1.41045e-05 -0)
(45.5181 -6.8224e-05 -0)
(45.5182 -6.01031e-05 -0)
(45.5184 1.1547e-05 -0)
(45.5185 7.78239e-05 -0)
(45.5185 6.52743e-05 -0)
(45.5182 5.34874e-06 -0)
(45.5181 5.50905e-06 -0)
(45.5183 -2.39776e-05 -0)
(45.5189 -0.000422744 -0)
(45.5191 -0.00100789 -0)
(45.5181 -0.000689025 -0)
(45.5172 0.000476365 -0)
(45.5182 0.000347625 -0)
(45.5193 -0.000563848 -0)
(45.5184 -0.000392281 -0)
(45.521 5.70511e-05 -0)
(45.5208 0.000141561 -0)
(45.5204 0.000179936 -0)
(45.5197 0.000176913 -0)
(45.519 0.00013849 -0)
(45.5183 7.24465e-05 -0)
(45.5177 -8.85914e-06 -0)
(45.5174 -8.82539e-05 -0)
(45.5173 -0.000146102 -0)
(45.5175 -0.000165074 -0)
(45.5179 -0.000136414 -0)
(45.5184 -6.5535e-05 -0)
(45.5188 2.61076e-05 -0)
(45.519 0.000105542 -0)
(45.5189 0.000139706 -0)
(45.5187 0.000110699 -0)
(45.5183 2.81464e-05 -0)
(45.518 -6.94929e-05 -0)
(45.5179 -0.000129912 -0)
(45.518 -0.000115349 -0)
(45.5184 -3.06069e-05 -0)
(45.5186 7.00824e-05 -0)
(45.5187 0.000112127 -0)
(45.5184 5.65638e-05 -0)
(45.5182 -5.72069e-05 -0)
(45.5181 -0.000130094 -0)
(45.5182 -8.82905e-05 -0)
(45.5185 3.2802e-05 -0)
(45.5186 9.88289e-05 -0)
(45.5184 1.39989e-05 -0)
(45.5182 -9.75361e-05 -0)
(45.5181 7.82001e-05 -0)
(45.5179 0.000519236 -0)
(45.5179 0.000382338 -0)
(45.5188 -0.000824187 -0)
(45.5196 -0.00129303 -0)
(45.5182 0.000359092 -0)
(45.5172 0.00101105 -0)
(45.5185 -6.6829e-05 -0)
(45.519 -0.000418728 -0)
(45.5211 3.07502e-05 -0)
(45.5208 7.82851e-05 -0)
(45.5204 0.000101507 -0)
(45.5197 9.78562e-05 -0)
(45.519 6.92129e-05 -0)
(45.5183 2.1106e-05 -0)
(45.5177 -3.66741e-05 -0)
(45.5173 -9.04719e-05 -0)
(45.5173 -0.000125022 -0)
(45.5175 -0.000127678 -0)
(45.5179 -9.36968e-05 -0)
(45.5184 -3.04893e-05 -0)
(45.5189 4.18257e-05 -0)
(45.519 9.55717e-05 -0)
(45.5189 0.000106185 -0)
(45.5186 6.5013e-05 -0)
(45.5182 -1.20473e-05 -0)
(45.5179 -8.70246e-05 -0)
(45.5179 -0.000116806 -0)
(45.5181 -7.95525e-05 -0)
(45.5184 4.41612e-06 -0)
(45.5187 7.63794e-05 -0)
(45.5186 7.63094e-05 -0)
(45.5184 -4.29099e-06 -0)
(45.5181 -9.88498e-05 -0)
(45.5181 -0.000113077 -0)
(45.5183 -2.32181e-05 -0)
(45.5186 7.70827e-05 -0)
(45.5185 6.12328e-05 -0)
(45.5183 -0.000101676 -0)
(45.5183 -0.000315798 -0)
(45.5187 -0.000351333 -0)
(45.5187 0.000113736 -0)
(45.5176 0.000884295 -0)
(45.5174 0.000717515 -0)
(45.5193 -0.000695884 -0)
(45.5195 -0.00108437 -0)
(45.5178 0.000386666 -0)
(45.5178 0.00070091 -0)
(45.5186 2.85349e-05 -0)
(45.5211 2.37451e-05 -0)
(45.5209 6.25912e-05 -0)
(45.5204 8.4104e-05 -0)
(45.5197 8.30856e-05 -0)
(45.5189 5.90444e-05 -0)
(45.5182 1.60144e-05 -0)
(45.5176 -3.71555e-05 -0)
(45.5173 -8.73716e-05 -0)
(45.5173 -0.000119678 -0)
(45.5175 -0.000121624 -0)
(45.518 -8.86357e-05 -0)
(45.5185 -2.82204e-05 -0)
(45.5189 3.9672e-05 -0)
(45.5191 8.80535e-05 -0)
(45.5189 9.37298e-05 -0)
(45.5185 4.99921e-05 -0)
(45.5181 -2.53299e-05 -0)
(45.5178 -9.35314e-05 -0)
(45.5179 -0.000113514 -0)
(45.5182 -6.89273e-05 -0)
(45.5185 1.29866e-05 -0)
(45.5187 7.0665e-05 -0)
(45.5186 5.07244e-05 -0)
(45.5183 -4.07582e-05 -0)
(45.5181 -0.000125649 -0)
(45.5181 -0.000114225 -0)
(45.5184 -6.68248e-06 -0)
(45.5186 8.37492e-05 -0)
(45.5184 7.69455e-05 -0)
(45.518 6.23964e-05 -0)
(45.5179 7.78308e-05 -0)
(45.5185 -0.000178159 -0)
(45.5192 -0.000703331 -0)
(45.5185 -0.000393176 -0)
(45.5172 0.000963538 -0)
(45.5178 0.000746665 -0)
(45.5193 -0.000895264 -0)
(45.5189 -0.000616584 -0)
(45.5182 8.0596e-05 -0)
(45.5183 3.93714e-05 -0)
(45.5212 2.09496e-05 -0)
(45.5209 5.66044e-05 -0)
(45.5204 7.81341e-05 -0)
(45.5197 7.93185e-05 -0)
(45.5189 5.83278e-05 -0)
(45.5182 1.80862e-05 -0)
(45.5176 -3.32817e-05 -0)
(45.5173 -8.29819e-05 -0)
(45.5173 -0.000115993 -0)
(45.5175 -0.000119577 -0)
(45.518 -8.88079e-05 -0)
(45.5186 -3.08977e-05 -0)
(45.519 3.44057e-05 -0)
(45.5191 8.02858e-05 -0)
(45.5189 8.38685e-05 -0)
(45.5185 3.91345e-05 -0)
(45.518 -3.50535e-05 -0)
(45.5178 -9.92968e-05 -0)
(45.5179 -0.000113506 -0)
(45.5182 -6.50476e-05 -0)
(45.5186 1.38968e-05 -0)
(45.5187 6.07254e-05 -0)
(45.5185 2.99223e-05 -0)
(45.5182 -5.96907e-05 -0)
(45.518 -0.000127942 -0)
(45.5182 -0.000104948 -0)
(45.5185 -2.32337e-05 -0)
(45.5186 -2.16043e-05 -0)
(45.5185 -0.000160915 -0)
(45.5183 -0.00018635 -0)
(45.5181 0.000224854 -0)
(45.5179 0.000603921 -0)
(45.5184 -0.000111093 -0)
(45.5192 -0.00115703 -0)
(45.5185 -0.000182832 -0)
(45.5174 0.000952778 -0)
(45.5181 0.00039707 -0)
(45.5187 -0.000306499 -0)
(45.5185 -0.000151095 -0)
(45.5185 -4.13427e-05 -0)
(45.5212 1.99244e-05 -0)
(45.5209 5.45533e-05 -0)
(45.5204 7.67152e-05 -0)
(45.5197 7.98184e-05 -0)
(45.5189 6.12283e-05 -0)
(45.5181 2.30127e-05 -0)
(45.5175 -2.73668e-05 -0)
(45.5172 -7.74484e-05 -0)
(45.5172 -0.000112177 -0)
(45.5176 -0.000118464 -0)
(45.5181 -9.08272e-05 -0)
(45.5186 -3.58792e-05 -0)
(45.519 2.70721e-05 -0)
(45.5191 7.13527e-05 -0)
(45.5189 7.40202e-05 -0)
(45.5184 2.91348e-05 -0)
(45.518 -4.39218e-05 -0)
(45.5178 -0.000105199 -0)
(45.5179 -0.000115335 -0)
(45.5183 -6.49136e-05 -0)
(45.5186 9.13988e-06 -0)
(45.5187 4.28195e-05 -0)
(45.5185 -8.40281e-07 -0)
(45.5181 -8.52762e-05 -0)
(45.518 -0.000119773 -0)
(45.5183 -4.76387e-05 -0)
(45.5185 7.5954e-05 -0)
(45.5185 9.44396e-05 -0)
(45.5182 -0.000129338 -0)
(45.5184 -0.000471382 -0)
(45.5187 -0.000408901 -0)
(45.5182 0.000344811 -0)
(45.5174 0.000782269 -0)
(45.5185 -0.000193074 -0)
(45.5193 -0.00091933 -0)
(45.5183 -0.000262825 -0)
(45.518 0.000297763 -0)
(45.5184 7.77486e-05 -0)
(45.5184 2.38165e-05 -0)
(45.5185 -1.69558e-05 -0)
(45.5212 1.9754e-05 -0)
(45.5209 5.45252e-05 -0)
(45.5204 7.77556e-05 -0)
(45.5197 8.27391e-05 -0)
(45.5188 6.63111e-05 -0)
(45.5181 2.98278e-05 -0)
(45.5175 -1.99118e-05 -0)
(45.5172 -7.08703e-05 -0)
(45.5172 -0.000108046 -0)
(45.5176 -0.000117974 -0)
(45.5181 -9.44088e-05 -0)
(45.5187 -4.30258e-05 -0)
(45.5191 1.76074e-05 -0)
(45.5191 6.09809e-05 -0)
(45.5188 6.36932e-05 -0)
(45.5184 1.92134e-05 -0)
(45.5179 -5.30902e-05 -0)
(45.5177 -0.000112618 -0)
(45.5179 -0.00011973 -0)
(45.5184 -6.65221e-05 -0)
(45.5187 6.45754e-06 -0)
(45.5187 3.11432e-05 -0)
(45.5184 -2.99204e-05 -0)
(45.5181 -0.000133234 -0)
(45.5181 -0.000179069 -0)
(45.5184 -0.000112499 -0)
(45.5187 2.1338e-05 -0)
(45.5184 0.000154188 -0)
(45.5179 0.000232653 -0)
(45.518 9.29145e-05 -0)
(45.5189 -0.000368869 -0)
(45.5191 -0.000585903 -0)
(45.5179 0.00016645 -0)
(45.5175 0.000827338 -0)
(45.5185 -5.37542e-05 -0)
(45.5186 -0.000404888 -0)
(45.5184 -8.84107e-05 -0)
(45.5185 -7.93109e-06 -0)
(45.5184 5.9702e-05 -0)
(45.5185 1.83894e-05 -0)
(45.5213 1.99685e-05 -0)
(45.521 5.54506e-05 -0)
(45.5204 8.00018e-05 -0)
(45.5197 8.69199e-05 -0)
(45.5188 7.26477e-05 -0)
(45.518 3.78854e-05 -0)
(45.5174 -1.12873e-05 -0)
(45.5171 -6.33913e-05 -0)
(45.5172 -0.000103601 -0)
(45.5176 -0.000118066 -0)
(45.5182 -9.95754e-05 -0)
(45.5187 -5.24906e-05 -0)
(45.5191 5.73599e-06 -0)
(45.5192 4.88932e-05 -0)
(45.5188 5.28057e-05 -0)
(45.5183 9.56315e-06 -0)
(45.5178 -6.24651e-05 -0)
(45.5177 -0.000122643 -0)
(45.518 -0.000130551 -0)
(45.5184 -7.72215e-05 -0)
(45.5187 -1.3784e-06 -0)
(45.5187 3.12664e-05 -0)
(45.5183 -1.74602e-05 -0)
(45.518 -0.000111369 -0)
(45.518 -0.000165597 -0)
(45.5185 -0.000158895 -0)
(45.5188 -0.000190127 -0)
(45.5187 -0.000286038 -0)
(45.5182 -0.000184872 -0)
(45.5178 0.000258593 -0)
(45.518 0.000387274 -0)
(45.5187 -0.000403129 -0)
(45.5188 -0.000851023 -0)
(45.5182 0.000178167 -0)
(45.5181 0.000319913 -0)
(45.5183 7.40072e-05 -0)
(45.5184 -2.08875e-05 -0)
(45.5185 -0.000100407 -0)
(45.5185 -2.0036e-05 -0)
(45.5184 5.38989e-06 -0)
(45.5213 2.02837e-05 -0)
(45.521 5.66218e-05 -0)
(45.5204 8.25499e-05 -0)
(45.5197 9.14528e-05 -0)
(45.5188 7.94503e-05 -0)
(45.518 4.65841e-05 -0)
(45.5174 -1.88366e-06 -0)
(45.5171 -5.51988e-05 -0)
(45.5172 -9.88639e-05 -0)
(45.5176 -0.000118676 -0)
(45.5182 -0.000106282 -0)
(45.5188 -6.4389e-05 -0)
(45.5192 -8.94763e-06 -0)
(45.5192 3.43799e-05 -0)
(45.5188 4.0627e-05 -0)
(45.5182 1.53353e-07 -0)
(45.5178 -7.03612e-05 -0)
(45.5177 -0.000131284 -0)
(45.518 -0.000142988 -0)
(45.5185 -9.75903e-05 -0)
(45.5188 -3.26209e-05 -0)
(45.5187 -5.10718e-06 -0)
(45.5182 -3.76708e-05 -0)
(45.5179 -8.18507e-05 -0)
(45.518 -4.86188e-05 -0)
(45.5184 7.45354e-05 -0)
(45.5185 0.000109912 -0)
(45.5184 -0.000161288 -0)
(45.5185 -0.000526885 -0)
(45.5186 -0.000325722 -0)
(45.5182 0.000417433 -0)
(45.5179 0.00047815 -0)
(45.5185 -0.000317806 -0)
(45.5187 -0.000260407 -0)
(45.5184 -8.0897e-05 -0)
(45.5183 6.9947e-05 -0)
(45.5183 7.77249e-05 -0)
(45.5185 -5.73451e-05 -0)
(45.5185 -4.91983e-05 -0)
(45.5185 -1.29198e-05 -0)
(45.5213 2.0508e-05 -0)
(45.521 5.75326e-05 -0)
(45.5205 8.47067e-05 -0)
(45.5197 9.55859e-05 -0)
(45.5188 8.60122e-05 -0)
(45.518 5.53368e-05 -0)
(45.5173 7.87685e-06 -0)
(45.517 -4.65337e-05 -0)
(45.5171 -9.39067e-05 -0)
(45.5176 -0.00011974 -0)
(45.5182 -0.000114388 -0)
(45.5188 -7.85767e-05 -0)
(45.5192 -2.64364e-05 -0)
(45.5192 1.70216e-05 -0)
(45.5188 2.58766e-05 -0)
(45.5182 -1.14094e-05 -0)
(45.5177 -7.9503e-05 -0)
(45.5176 -0.000138465 -0)
(45.518 -0.000147818 -0)
(45.5185 -0.000102161 -0)
(45.5188 -4.73466e-05 -0)
(45.5187 -4.83596e-05 -0)
(45.5182 -0.000123706 -0)
(45.518 -0.000208939 -0)
(45.5182 -0.000193283 -0)
(45.5186 -1.07735e-05 -0)
(45.5186 0.000248393 -0)
(45.518 0.000301839 -0)
(45.518 -4.38574e-05 -0)
(45.5188 -0.00042701 -0)
(45.5188 -0.000248741 -0)
(45.518 0.000214266 -0)
(45.5181 0.000171279 -0)
(45.5185 -2.40096e-05 -0)
(45.5184 -0.000235145 -0)
(45.5185 -0.000117881 -0)
(45.5183 3.86763e-05 -0)
(45.5184 6.79972e-08 -0)
(45.5185 -2.47439e-05 -0)
(45.5185 -1.40822e-05 -0)
(45.5214 2.05022e-05 -0)
(45.5211 5.77987e-05 -0)
(45.5205 8.59111e-05 -0)
(45.5197 9.86616e-05 -0)
(45.5188 9.16657e-05 -0)
(45.5179 6.35534e-05 -0)
(45.5173 1.75573e-05 -0)
(45.517 -3.76412e-05 -0)
(45.5171 -8.88069e-05 -0)
(45.5176 -0.000121258 -0)
(45.5182 -0.000123914 -0)
(45.5189 -9.50769e-05 -0)
(45.5193 -4.65071e-05 -0)
(45.5192 -2.35981e-06 -0)
(45.5188 9.87666e-06 -0)
(45.5181 -2.4704e-05 -0)
(45.5176 -9.35537e-05 -0)
(45.5176 -0.000155671 -0)
(45.518 -0.000163852 -0)
(45.5186 -0.000104005 -0)
(45.5189 -2.21893e-05 -0)
(45.5186 -5.17227e-07 -0)
(45.5181 -8.1469e-05 -0)
(45.5178 -0.000215656 -0)
(45.5182 -0.000308921 -0)
(45.5188 -0.000305506 -0)
(45.5189 -0.000185822 -0)
(45.5182 3.23816e-05 -0)
(45.5177 0.000178598 -0)
(45.5184 2.46147e-05 -0)
(45.5189 -0.000288617 -0)
(45.5183 -0.000301632 -0)
(45.5182 1.98822e-05 -0)
(45.5183 0.000176018 -0)
(45.5183 -5.9891e-05 -0)
(45.5186 -0.000121862 -0)
(45.5184 -4.18596e-06 -0)
(45.5184 2.10691e-05 -0)
(45.5185 7.17728e-07 -0)
(45.5185 -6.86626e-06 -0)
(45.5214 2.01602e-05 -0)
(45.5211 5.71175e-05 -0)
(45.5205 8.56961e-05 -0)
(45.5197 0.000100087 -0)
(45.5187 9.57482e-05 -0)
(45.5179 7.05934e-05 -0)
(45.5172 2.66638e-05 -0)
(45.5169 -2.87498e-05 -0)
(45.517 -8.3491e-05 -0)
(45.5175 -0.000122989 -0)
(45.5182 -0.000134793 -0)
(45.5189 -0.000114398 -0)
(45.5193 -7.0282e-05 -0)
(45.5193 -2.46008e-05 -0)
(45.5188 -5.88603e-06 -0)
(45.5181 -3.36582e-05 -0)
(45.5176 -0.000101971 -0)
(45.5176 -0.000174497 -0)
(45.518 -0.00020094 -0)
(45.5187 -0.000151967 -0)
(45.5189 -5.22242e-05 -0)
(45.5186 2.41461e-05 -0)
(45.518 1.8179e-05 -0)
(45.5177 -4.16099e-05 -0)
(45.5181 -8.01196e-05 -0)
(45.5187 -0.000114992 -0)
(45.5189 -0.000226358 -0)
(45.5184 -0.000300075 -0)
(45.518 -9.28136e-05 -0)
(45.5183 0.00022516 -0)
(45.5185 0.000133381 -0)
(45.5183 -0.000249389 -0)
(45.5185 -0.000168396 -0)
(45.5184 0.000135973 -0)
(45.5181 8.64027e-05 -0)
(45.5185 -2.69092e-05 -0)
(45.5184 -4.2774e-06 -0)
(45.5184 1.87987e-05 -0)
(45.5185 8.32098e-06 -0)
(45.5185 -1.02554e-06 -0)
(45.5215 1.94005e-05 -0)
(45.5211 5.52502e-05 -0)
(45.5205 8.36788e-05 -0)
(45.5197 9.93467e-05 -0)
(45.5187 9.76286e-05 -0)
(45.5178 7.5759e-05 -0)
(45.5172 3.45461e-05 -0)
(45.5169 -2.02753e-05 -0)
(45.517 -7.79239e-05 -0)
(45.5175 -0.00012432 -0)
(45.5182 -0.000145998 -0)
(45.5189 -0.000135785 -0)
(45.5194 -9.84743e-05 -0)
(45.5193 -5.29768e-05 -0)
(45.5188 -2.68418e-05 -0)
(45.518 -4.215e-05 -0)
(45.5175 -9.90827e-05 -0)
(45.5175 -0.000169872 -0)
(45.518 -0.000212267 -0)
(45.5187 -0.000197198 -0)
(45.519 -0.000133245 -0)
(45.5187 -6.82531e-05 -0)
(45.518 -4.91413e-05 -0)
(45.5177 -5.15255e-05 -0)
(45.5181 1.67606e-05 -0)
(45.5187 0.000145048 -0)
(45.5187 0.000115655 -0)
(45.5183 -0.00015782 -0)
(45.5183 -0.000281067 -0)
(45.5186 4.87177e-05 -0)
(45.5184 0.000313467 -0)
(45.518 3.04558e-05 -0)
(45.5186 -0.000140973 -0)
(45.5185 3.47618e-05 -0)
(45.5181 9.28022e-05 -0)
(45.5185 2.3872e-05 -0)
(45.5184 1.55363e-06 -0)
(45.5184 8.03265e-06 -0)
(45.5185 5.19169e-06 -0)
(45.5185 1.50064e-06 -0)
(45.5215 1.8165e-05 -0)
(45.5212 5.2016e-05 -0)
(45.5205 7.95509e-05 -0)
(45.5197 9.60076e-05 -0)
(45.5187 9.67636e-05 -0)
(45.5178 7.84175e-05 -0)
(45.5171 4.05168e-05 -0)
(45.5168 -1.28825e-05 -0)
(45.5169 -7.25854e-05 -0)
(45.5175 -0.000125246 -0)
(45.5182 -0.000156601 -0)
(45.519 -0.000157018 -0)
(45.5194 -0.000127874 -0)
(45.5193 -8.50585e-05 -0)
(45.5188 -5.49072e-05 -0)
(45.518 -6.05567e-05 -0)
(45.5175 -0.000104296 -0)
(45.5174 -0.000160171 -0)
(45.518 -0.000189777 -0)
(45.5187 -0.000174433 -0)
(45.5191 -0.00013474 -0)
(45.5187 -0.000116066 -0)
(45.518 -0.000148109 -0)
(45.5178 -0.000196696 -0)
(45.5183 -0.0001503 -0)
(45.5188 5.68522e-05 -0)
(45.5186 0.000238628 -0)
(45.518 0.000100002 -0)
(45.5182 -0.00020353 -0)
(45.5189 -0.000145925 -0)
(45.5185 0.000179901 -0)
(45.5178 0.000139593 -0)
(45.5186 -5.25625e-05 -0)
(45.5186 -2.34642e-05 -0)
(45.5181 3.90834e-05 -0)
(45.5184 2.08144e-05 -0)
(45.5184 -7.56298e-07 -0)
(45.5184 -6.42846e-07 -0)
(45.5185 1.71187e-06 -0)
(45.5185 2.56659e-06 -0)
(45.5215 1.64243e-05 -0)
(45.5212 4.7308e-05 -0)
(45.5206 7.30853e-05 -0)
(45.5197 8.96867e-05 -0)
(45.5187 9.26373e-05 -0)
(45.5178 7.80076e-05 -0)
(45.5171 4.40763e-05 -0)
(45.5168 -6.96109e-06 -0)
(45.5169 -6.78458e-05 -0)
(45.5174 -0.000126333 -0)
(45.5182 -0.00016744 -0)
(45.519 -0.000178643 -0)
(45.5194 -0.000157154 -0)
(45.5194 -0.000115572 -0)
(45.5188 -8.0263e-05 -0)
(45.518 -7.86513e-05 -0)
(45.5174 -0.000118439 -0)
(45.5174 -0.000172602 -0)
(45.518 -0.000190757 -0)
(45.5188 -0.000142893 -0)
(45.5191 -6.11416e-05 -0)
(45.5187 -2.48204e-05 -0)
(45.5179 -8.65913e-05 -0)
(45.5177 -0.000209045 -0)
(45.5184 -0.000268122 -0)
(45.5191 -0.000143515 -0)
(45.5187 0.000100601 -0)
(45.5178 0.000168092 -0)
(45.518 -5.47181e-05 -0)
(45.519 -0.000179298 -0)
(45.5187 1.14378e-05 -0)
(45.5178 9.81551e-05 -0)
(45.5185 -3.44022e-06 -0)
(45.5186 -3.4164e-05 -0)
(45.5181 3.56208e-07 -0)
(45.5184 7.75639e-06 -0)
(45.5184 -8.26772e-07 -0)
(45.5184 -1.1612e-06 -0)
(45.5185 2.31447e-06 -0)
(45.5185 4.00048e-06 -0)
(45.5216 1.41827e-05 -0)
(45.5212 4.11217e-05 -0)
(45.5206 6.42036e-05 -0)
(45.5197 8.01093e-05 -0)
(45.5187 8.46919e-05 -0)
(45.5178 7.37517e-05 -0)
(45.517 4.4498e-05 -0)
(45.5167 -2.77324e-06 -0)
(45.5168 -6.31791e-05 -0)
(45.5174 -0.000126431 -0)
(45.5182 -0.000177731 -0)
(45.519 -0.000201788 -0)
(45.5195 -0.00019023 -0)
(45.5194 -0.000149541 -0)
(45.5188 -0.000103624 -0)
(45.518 -8.53696e-05 -0)
(45.5174 -0.000116288 -0)
(45.5174 -0.000182142 -0)
(45.518 -0.000225497 -0)
(45.5189 -0.000181158 -0)
(45.5192 -4.71947e-05 -0)
(45.5187 8.13e-05 -0)
(45.5178 8.73111e-05 -0)
(45.5176 -4.16951e-05 -0)
(45.5184 -0.000183747 -0)
(45.5192 -0.000185633 -0)
(45.5189 -1.69139e-05 -0)
(45.5178 0.000133555 -0)
(45.5179 5.40014e-05 -0)
(45.5189 -9.63974e-05 -0)
(45.5188 -4.43921e-05 -0)
(45.5178 4.81611e-05 -0)
(45.5184 2.19456e-05 -0)
(45.5186 -1.37774e-05 -0)
(45.5182 -5.08052e-06 -0)
(45.5184 5.69855e-06 -0)
(45.5184 4.7046e-06 -0)
(45.5184 3.80039e-06 -0)
(45.5185 5.36849e-06 -0)
(45.5185 6.22407e-06 -0)
(45.5216 1.14716e-05 -0)
(45.5212 3.3541e-05 -0)
(45.5206 5.30142e-05 -0)
(45.5197 6.72871e-05 -0)
(45.5187 7.26214e-05 -0)
(45.5177 6.48163e-05 -0)
(45.517 4.0427e-05 -0)
(45.5167 -1.76307e-06 -0)
(45.5168 -5.91845e-05 -0)
(45.5173 -0.000124133 -0)
(45.5181 -0.000183491 -0)
(45.519 -0.000221055 -0)
(45.5195 -0.000223642 -0)
(45.5195 -0.000189652 -0)
(45.5189 -0.000135237 -0)
(45.518 -9.21171e-05 -0)
(45.5173 -9.38258e-05 -0)
(45.5173 -0.000151611 -0)
(45.518 -0.000229693 -0)
(45.519 -0.000247634 -0)
(45.5194 -0.000141016 -0)
(45.5188 5.0435e-05 -0)
(45.5178 0.000182953 -0)
(45.5175 0.000149273 -0)
(45.5182 5.93454e-06 -0)
(45.5192 -8.38517e-05 -0)
(45.519 -2.12628e-05 -0)
(45.5179 0.000111264 -0)
(45.5178 0.000121007 -0)
(45.5189 1.25708e-05 -0)
(45.5188 -1.45279e-05 -0)
(45.5179 3.45111e-05 -0)
(45.5184 3.89232e-05 -0)
(45.5186 1.31376e-05 -0)
(45.5182 5.35671e-06 -0)
(45.5184 8.81611e-06 -0)
(45.5184 8.84633e-06 -0)
(45.5184 7.34727e-06 -0)
(45.5185 7.52812e-06 -0)
(45.5185 8.68845e-06 -0)
(45.5216 8.34569e-06 -0)
(45.5213 2.46918e-05 -0)
(45.5206 3.96838e-05 -0)
(45.5197 5.14227e-05 -0)
(45.5187 5.65866e-05 -0)
(45.5177 5.10729e-05 -0)
(45.517 3.10603e-05 -0)
(45.5166 -5.72348e-06 -0)
(45.5167 -5.85067e-05 -0)
(45.5172 -0.000121892 -0)
(45.5181 -0.00018495 -0)
(45.5189 -0.000232328 -0)
(45.5195 -0.000248648 -0)
(45.5195 -0.000225983 -0)
(45.5189 -0.000171277 -0)
(45.518 -0.000108429 -0)
(45.5173 -7.15525e-05 -0)
(45.5172 -8.93471e-05 -0)
(45.5179 -0.000161505 -0)
(45.519 -0.000236503 -0)
(45.5195 -0.000225765 -0)
(45.519 -8.39397e-05 -0)
(45.5179 0.000109801 -0)
(45.5174 0.000204113 -0)
(45.5181 0.00014409 -0)
(45.5192 3.6065e-05 -0)
(45.5191 1.61117e-05 -0)
(45.518 9.26259e-05 -0)
(45.5178 0.000135559 -0)
(45.5188 7.88935e-05 -0)
(45.5188 2.55086e-05 -0)
(45.5179 3.07083e-05 -0)
(45.5184 3.71228e-05 -0)
(45.5186 2.20951e-05 -0)
(45.5182 9.3612e-06 -0)
(45.5184 6.73524e-06 -0)
(45.5184 6.66958e-06 -0)
(45.5184 6.62383e-06 -0)
(45.5185 8.01702e-06 -0)
(45.5185 1.10837e-05 -0)
(45.5216 4.90087e-06 -0)
(45.5213 1.47876e-05 -0)
(45.5206 2.43892e-05 -0)
(45.5197 3.25737e-05 -0)
(45.5187 3.66085e-05 -0)
(45.5177 3.2668e-05 -0)
(45.517 1.67135e-05 -0)
(45.5166 -1.44389e-05 -0)
(45.5166 -6.16763e-05 -0)
(45.5172 -0.000121713 -0)
(45.518 -0.000185607 -0)
(45.5189 -0.000239135 -0)
(45.5195 -0.000266086 -0)
(45.5195 -0.000254499 -0)
(45.519 -0.000204092 -0)
(45.5181 -0.00013071 -0)
(45.5173 -6.32225e-05 -0)
(45.5172 -3.29766e-05 -0)
(45.5179 -5.94382e-05 -0)
(45.5189 -0.000131528 -0)
(45.5195 -0.000192023 -0)
(45.5191 -0.000162539 -0)
(45.5181 -2.70593e-05 -0)
(45.5175 0.000117911 -0)
(45.5181 0.000156157 -0)
(45.5191 9.1986e-05 -0)
(45.5191 3.47853e-05 -0)
(45.518 5.19501e-05 -0)
(45.5178 9.04045e-05 -0)
(45.5188 7.42522e-05 -0)
(45.5188 2.95247e-05 -0)
(45.5179 1.22121e-05 -0)
(45.5184 1.30217e-05 -0)
(45.5186 7.94568e-06 -0)
(45.5181 6.46413e-07 -0)
(45.5184 -8.68326e-07 -0)
(45.5184 1.66095e-06 -0)
(45.5184 5.16826e-06 -0)
(45.5185 9.26159e-06 -0)
(45.5185 1.39568e-05 -0)
(45.5216 1.26329e-06 -0)
(45.5213 4.19625e-06 -0)
(45.5206 7.59052e-06 -0)
(45.5197 1.09629e-05 -0)
(45.5187 1.24005e-05 -0)
(45.5177 8.85008e-06 -0)
(45.5169 -3.36603e-06 -0)
(45.5165 -2.79122e-05 -0)
(45.5166 -6.73162e-05 -0)
(45.5171 -0.000120928 -0)
(45.518 -0.000182592 -0)
(45.5189 -0.000239894 -0)
(45.5195 -0.000276404 -0)
(45.5196 -0.000276853 -0)
(45.519 -0.000234254 -0)
(45.5182 -0.000156682 -0)
(45.5174 -6.8269e-05 -0)
(45.5172 5.30989e-08 -0)
(45.5179 2.43816e-05 -0)
(45.5188 -3.04908e-06 -0)
(45.5195 -6.4774e-05 -0)
(45.5192 -0.000109505 -0)
(45.5182 -8.05109e-05 -0)
(45.5176 1.36493e-05 -0)
(45.5181 8.66138e-05 -0)
(45.5191 7.72508e-05 -0)
(45.5191 2.53541e-05 -0)
(45.518 2.32732e-06 -0)
(45.5178 1.65719e-05 -0)
(45.5187 2.04908e-05 -0)
(45.5187 -1.10153e-06 -0)
(45.5179 -1.76674e-05 -0)
(45.5184 -1.74216e-05 -0)
(45.5186 -1.29225e-05 -0)
(45.5181 -9.70439e-06 -0)
(45.5184 -4.84293e-06 -0)
(45.5184 1.9819e-06 -0)
(45.5184 8.68204e-06 -0)
(45.5185 1.41567e-05 -0)
(45.5185 1.81138e-05 -0)
(45.5216 -2.47774e-06 -0)
(45.5213 -6.74485e-06 -0)
(45.5206 -1.00073e-05 -0)
(45.5197 -1.24644e-05 -0)
(45.5187 -1.53648e-05 -0)
(45.5177 -2.0678e-05 -0)
(45.5169 -3.08967e-05 -0)
(45.5165 -4.90165e-05 -0)
(45.5165 -7.81766e-05 -0)
(45.5171 -0.000120167 -0)
(45.5179 -0.000172744 -0)
(45.5188 -0.000227431 -0)
(45.5195 -0.000269961 -0)
(45.5196 -0.000283804 -0)
(45.5191 -0.000255978 -0)
(45.5182 -0.000184747 -0)
(45.5175 -8.62278e-05 -0)
(45.5173 8.95973e-06 -0)
(45.5179 7.21427e-05 -0)
(45.5188 9.03996e-05 -0)
(45.5194 6.52914e-05 -0)
(45.5191 1.3867e-05 -0)
(45.5182 -2.40243e-05 -0)
(45.5177 -1.34587e-05 -0)
(45.5181 2.46691e-05 -0)
(45.519 3.42713e-05 -0)
(45.519 2.73625e-06 -0)
(45.518 -3.30945e-05 -0)
(45.5178 -4.17913e-05 -0)
(45.5187 -3.49133e-05 -0)
(45.5187 -3.54742e-05 -0)
(45.5178 -3.83453e-05 -0)
(45.5184 -3.1804e-05 -0)
(45.5186 -1.9052e-05 -0)
(45.5182 -6.77619e-06 -0)
(45.5184 3.75251e-06 -0)
(45.5184 1.2727e-05 -0)
(45.5184 1.93016e-05 -0)
(45.5185 2.28543e-05 -0)
(45.5185 2.34233e-05 -0)
(45.5216 -6.2768e-06 -0)
(45.5213 -1.79292e-05 -0)
(45.5206 -2.80795e-05 -0)
(45.5197 -3.67971e-05 -0)
(45.5187 -4.50368e-05 -0)
(45.5177 -5.39864e-05 -0)
(45.5169 -6.47979e-05 -0)
(45.5165 -7.89246e-05 -0)
(45.5165 -9.85059e-05 -0)
(45.517 -0.00012597 -0)
(45.5179 -0.000162211 -0)
(45.5188 -0.000203933 -0)
(45.5194 -0.000242137 -0)
(45.5196 -0.000263252 -0)
(45.5191 -0.0002526 -0)
(45.5183 -0.000200241 -0)
(45.5176 -0.000109812 -0)
(45.5174 -4.2754e-06 -0)
(45.5179 8.37775e-05 -0)
(45.5188 0.000133337 -0)
(45.5194 0.000141848 -0)
(45.5191 0.000114452 -0)
(45.5182 6.55995e-05 -0)
(45.5177 2.50316e-05 -0)
(45.5182 1.01937e-05 -0)
(45.519 3.39571e-06 -0)
(45.519 -1.64291e-05 -0)
(45.518 -4.58725e-05 -0)
(45.5178 -6.23455e-05 -0)
(45.5188 -5.71197e-05 -0)
(45.5187 -4.43338e-05 -0)
(45.5179 -3.22952e-05 -0)
(45.5184 -1.76886e-05 -0)
(45.5186 -5.78385e-07 -0)
(45.5182 1.44499e-05 -0)
(45.5185 2.49108e-05 -0)
(45.5184 3.08986e-05 -0)
(45.5184 3.29433e-05 -0)
(45.5185 3.17196e-05 -0)
(45.5185 2.82549e-05 -0)
(45.5216 -1.00473e-05 -0)
(45.5213 -2.92295e-05 -0)
(45.5206 -4.66608e-05 -0)
(45.5197 -6.20517e-05 -0)
(45.5187 -7.5976e-05 -0)
(45.5177 -8.90982e-05 -0)
(45.5169 -0.000101702 -0)
(45.5165 -0.000113971 -0)
(45.5165 -0.000126556 -0)
(45.517 -0.000140813 -0)
(45.5178 -0.000158339 -0)
(45.5187 -0.000179514 -0)
(45.5194 -0.00020146 -0)
(45.5196 -0.000216879 -0)
(45.5192 -0.000214845 -0)
(45.5184 -0.000183713 -0)
(45.5177 -0.000117448 -0)
(45.5175 -2.50462e-05 -0)
(45.518 6.72341e-05 -0)
(45.5189 0.000131567 -0)
(45.5194 0.000157488 -0)
(45.519 0.00014904 -0)
(45.5181 0.000112979 -0)
(45.5176 6.29914e-05 -0)
(45.5181 1.92993e-05 -0)
(45.519 -8.72863e-06 -0)
(45.519 -2.58665e-05 -0)
(45.518 -4.07391e-05 -0)
(45.5178 -4.86787e-05 -0)
(45.5188 -3.9822e-05 -0)
(45.5188 -1.92263e-05 -0)
(45.5179 2.09788e-06 -0)
(45.5184 2.04421e-05 -0)
(45.5186 3.53427e-05 -0)
(45.5182 4.49714e-05 -0)
(45.5185 4.82855e-05 -0)
(45.5184 4.6411e-05 -0)
(45.5184 4.14278e-05 -0)
(45.5185 3.54457e-05 -0)
(45.5185 3.04291e-05 -0)
(45.5216 -1.36941e-05 -0)
(45.5212 -4.03062e-05 -0)
(45.5206 -6.53552e-05 -0)
(45.5197 -8.81586e-05 -0)
(45.5187 -0.000108499 -0)
(45.5177 -0.000126092 -0)
(45.5169 -0.000140349 -0)
(45.5165 -0.00015072 -0)
(45.5165 -0.000157176 -0)
(45.517 -0.000160183 -0)
(45.5178 -0.00016059 -0)
(45.5187 -0.000159719 -0)
(45.5194 -0.000158763 -0)
(45.5196 -0.00015698 -0)
(45.5192 -0.000150111 -0)
(45.5184 -0.000130689 -0)
(45.5177 -9.08658e-05 -0)
(45.5176 -2.89367e-05 -0)
(45.5181 4.28772e-05 -0)
(45.5189 0.000100965 -0)
(45.5194 0.000127653 -0)
(45.519 0.000122967 -0)
(45.5181 9.61083e-05 -0)
(45.5176 5.59382e-05 -0)
(45.5181 1.33411e-05 -0)
(45.519 -1.79426e-05 -0)
(45.519 -2.9055e-05 -0)
(45.518 -2.57414e-05 -0)
(45.5178 -1.53516e-05 -0)
(45.5188 3.39173e-06 -0)
(45.5188 2.8271e-05 -0)
(45.5179 5.05948e-05 -0)
(45.5184 6.46209e-05 -0)
(45.5186 6.98243e-05 -0)
(45.5182 6.74079e-05 -0)
(45.5185 5.93023e-05 -0)
(45.5184 4.85096e-05 -0)
(45.5184 3.83287e-05 -0)
(45.5185 3.14059e-05 -0)
(45.5185 2.93963e-05 -0)
(45.5216 -1.72519e-05 -0)
(45.5212 -5.10289e-05 -0)
(45.5206 -8.35199e-05 -0)
(45.5197 -0.000114045 -0)
(45.5186 -0.000141681 -0)
(45.5177 -0.000164753 -0)
(45.5169 -0.000181136 -0)
(45.5164 -0.000189167 -0)
(45.5165 -0.000188525 -0)
(45.517 -0.000179986 -0)
(45.5178 -0.000164509 -0)
(45.5187 -0.000143321 -0)
(45.5194 -0.000118941 -0)
(45.5196 -9.49156e-05 -0)
(45.5192 -7.34841e-05 -0)
(45.5184 -5.36727e-05 -0)
(45.5178 -3.15958e-05 -0)
(45.5176 -2.80582e-06 -0)
(45.5181 3.23011e-05 -0)
(45.519 6.30898e-05 -0)
(45.5194 7.41957e-05 -0)
(45.519 6.09202e-05 -0)
(45.5181 3.3526e-05 -0)
(45.5175 4.42444e-06 -0)
(45.518 -2.04349e-05 -0)
(45.519 -3.47067e-05 -0)
(45.519 -2.90405e-05 -0)
(45.518 -5.2558e-06 -0)
(45.5178 2.4749e-05 -0)
(45.5188 5.34905e-05 -0)
(45.5188 7.73726e-05 -0)
(45.5179 9.14601e-05 -0)
(45.5185 9.26975e-05 -0)
(45.5186 8.28789e-05 -0)
(45.5182 6.66256e-05 -0)
(45.5184 4.89245e-05 -0)
(45.5184 3.41295e-05 -0)
(45.5184 2.52592e-05 -0)
(45.5185 2.34488e-05 -0)
(45.5185 2.79063e-05 -0)
(45.5215 -2.08423e-05 -0)
(45.5212 -6.17194e-05 -0)
(45.5205 -0.000101236 -0)
(45.5196 -0.000138877 -0)
(45.5186 -0.000173525 -0)
(45.5176 -0.00020253 -0)
(45.5169 -0.000222075 -0)
(45.5164 -0.0002287 -0)
(45.5165 -0.00022096 -0)
(45.517 -0.000199937 -0)
(45.5178 -0.000168037 -0)
(45.5188 -0.000127746 -0)
(45.5194 -8.22565e-05 -0)
(45.5196 -3.68254e-05 -0)
(45.5192 2.07606e-06 -0)
(45.5185 2.94692e-05 -0)
(45.5178 4.35406e-05 -0)
(45.5177 4.61485e-05 -0)
(45.5182 4.20629e-05 -0)
(45.519 3.38417e-05 -0)
(45.5194 1.72163e-05 -0)
(45.519 -1.14619e-05 -0)
(45.518 -4.35578e-05 -0)
(45.5175 -6.36889e-05 -0)
(45.518 -6.57838e-05 -0)
(45.519 -5.19318e-05 -0)
(45.519 -2.17723e-05 -0)
(45.518 2.09999e-05 -0)
(45.5179 6.34781e-05 -0)
(45.5188 9.39406e-05 -0)
(45.5188 0.000107905 -0)
(45.5179 0.000105194 -0)
(45.5184 8.86063e-05 -0)
(45.5186 6.43208e-05 -0)
(45.5181 3.99743e-05 -0)
(45.5184 2.18047e-05 -0)
(45.5184 1.30801e-05 -0)
(45.5184 1.38173e-05 -0)
(45.5185 2.12593e-05 -0)
(45.5185 3.07913e-05 -0)
(45.5215 -2.45034e-05 -0)
(45.5211 -7.26825e-05 -0)
(45.5205 -0.000119184 -0)
(45.5196 -0.00016319 -0)
(45.5186 -0.000203396 -0)
(45.5176 -0.000236896 -0)
(45.5168 -0.000259088 -0)
(45.5165 -0.000265143 -0)
(45.5165 -0.000251912 -0)
(45.517 -0.000219484 -0)
(45.5179 -0.000171199 -0)
(45.5188 -0.000112071 -0)
(45.5195 -4.76164e-05 -0)
(45.5197 1.55337e-05 -0)
(45.5193 6.90445e-05 -0)
(45.5185 0.000104368 -0)
(45.5178 0.000115124 -0)
(45.5176 9.93984e-05 -0)
(45.5181 6.25046e-05 -0)
(45.5189 1.584e-05 -0)
(45.5194 -3.12882e-05 -0)
(45.519 -7.50994e-05 -0)
(45.518 -0.000108215 -0)
(45.5175 -0.000116902 -0)
(45.5181 -9.55663e-05 -0)
(45.519 -5.27877e-05 -0)
(45.519 2.46107e-07 -0)
(45.5181 5.34436e-05 -0)
(45.5179 9.41396e-05 -0)
(45.5189 0.000112125 -0)
(45.5188 0.000106058 -0)
(45.5179 8.22382e-05 -0)
(45.5184 5.04771e-05 -0)
(45.5186 2.1111e-05 -0)
(45.5181 2.23207e-06 -0)
(45.5184 -2.64626e-06 -0)
(45.5184 4.80774e-06 -0)
(45.5184 1.90453e-05 -0)
(45.5185 3.29453e-05 -0)
(45.5185 4.0112e-05 -0)
(45.5214 -2.81836e-05 -0)
(45.5211 -8.38344e-05 -0)
(45.5204 -0.000137594 -0)
(45.5196 -0.00018781 -0)
(45.5185 -0.000232339 -0)
(45.5176 -0.000267957 -0)
(45.5168 -0.000290162 -0)
(45.5165 -0.000294143 -0)
(45.5165 -0.000276065 -0)
(45.5171 -0.000234615 -0)
(45.518 -0.000172404 -0)
(45.5189 -9.60127e-05 -0)
(45.5196 -1.44341e-05 -0)
(45.5197 6.25304e-05 -0)
(45.5193 0.000124863 -0)
(45.5185 0.000162895 -0)
(45.5178 0.000168713 -0)
(45.5176 0.000138631 -0)
(45.5181 7.75799e-05 -0)
(45.5189 1.74857e-06 -0)
(45.5193 -6.84244e-05 -0)
(45.5189 -0.000119412 -0)
(45.518 -0.000143775 -0)
(45.5175 -0.000133956 -0)
(45.5181 -8.95044e-05 -0)
(45.5191 -2.49342e-05 -0)
(45.5191 3.92211e-05 -0)
(45.5181 8.69262e-05 -0)
(45.5179 0.000107995 -0)
(45.5188 9.94613e-05 -0)
(45.5188 6.81273e-05 -0)
(45.5179 2.80982e-05 -0)
(45.5184 -5.55819e-06 -0)
(45.5186 -2.23055e-05 -0)
(45.5181 -1.90417e-05 -0)
(45.5184 -2.18092e-07 -0)
(45.5184 2.46527e-05 -0)
(45.5185 4.51862e-05 -0)
(45.5185 5.41952e-05 -0)
(45.5185 5.01646e-05 -0)
(45.5214 -3.18815e-05 -0)
(45.521 -9.49836e-05 -0)
(45.5204 -0.000156022 -0)
(45.5195 -0.000212436 -0)
(45.5185 -0.000260828 -0)
(45.5175 -0.000296978 -0)
(45.5168 -0.000316392 -0)
(45.5165 -0.000315076 -0)
(45.5166 -0.000290151 -0)
(45.5172 -0.000240393 -0)
(45.518 -0.000167505 -0)
(45.519 -7.78183e-05 -0)
(45.5196 1.74006e-05 -0)
(45.5198 0.000104165 -0)
(45.5194 0.000169145 -0)
(45.5185 0.000202083 -0)
(45.5178 0.000196735 -0)
(45.5175 0.000151738 -0)
(45.518 7.39094e-05 -0)
(45.5188 -1.76806e-05 -0)
(45.5192 -9.60113e-05 -0)
(45.5189 -0.000140289 -0)
(45.518 -0.000143552 -0)
(45.5176 -0.00010777 -0)
(45.5182 -4.27636e-05 -0)
(45.5191 3.03807e-05 -0)
(45.5191 8.6482e-05 -0)
(45.5182 0.00010899 -0)
(45.5179 9.50184e-05 -0)
(45.5188 5.39357e-05 -0)
(45.5187 3.81177e-06 -0)
(45.5178 -3.50757e-05 -0)
(45.5184 -4.84718e-05 -0)
(45.5186 -3.36499e-05 -0)
(45.5181 5.42643e-07 -0)
(45.5185 3.8612e-05 -0)
(45.5184 6.56372e-05 -0)