/*--------------------------------*- C++ -*----------------------------------*\
  =========                 |
  \\      /  F ield         | OpenFOAM: The Open Source CFD Toolbox
   \\    /   O peration     | Website:  https://openfoam.org
    \\  /    A nd           | Version:  7
     \\/     M anipulation  |
\*---------------------------------------------------------------------------*/
FoamFile
{
    version     2.0;
    format      ascii;
    class       volScalarField;
    location    "0";
    object      voltArho;
}
// * * * * * * * * * * * * * * * * * * * * * * * * * * * * * * * * * * * * * //

dimensions      [1 2 -3 0 0 -1 0];

internalField   nonuniform List<scalar> 
348515
(
-23.3426
-23.4531
-24.0709
-24.772
-24.7715
-23.4281
-21.0567
-18.6544
-16.8687
-15.7698
-15.1043
-14.5407
-13.9228
-13.2411
-12.4829
-11.631
-10.6592
-9.526
-8.15335
-6.35309
-3.48219
-16.7773
-72.6245
-105.587
-130.892
-151.815
-169.699
-185.258
-198.929
-211.009
-221.711
-231.2
-239.604
-247.027
-253.56
-259.276
-264.241
-268.511
-272.138
-275.167
-277.639
-279.592
-281.059
-282.073
-282.663
-282.856
-282.677
-282.151
-281.299
-280.142
-278.699
-276.991
-275.033
-272.842
-270.435
-267.827
-265.031
-262.061
-258.931
-255.652
-252.237
-248.696
-245.04
-241.28
-237.426
-233.486
-229.471
-225.388
-221.246
-217.052
-212.816
-208.543
-204.241
-199.916
-195.576
-191.225
-186.872
-182.52
-178.175
-173.843
-169.528
-165.236
-160.971
-156.738
-152.54
-148.382
-144.269
-140.202
-136.186
-132.225
-128.321
-124.477
-120.698
-116.984
-113.339
-109.766
-106.265
-102.841
-99.4941
-96.2267
-93.0403
-89.9371
-86.9178
-83.984
-81.1368
-78.3769
-75.7053
-73.1227
-70.6293
-68.2253
-65.9113
-63.6867
-61.5511
-59.504
-57.5445
-55.6711
-53.8827
-52.1768
-50.5504
-48.9985
-47.513
-46.0891
-44.7233
-43.4121
-42.1524
-40.9416
-39.7772
-38.6568
-37.5785
-36.6038
-35.605
-34.6417
-33.7142
-32.8201
-31.9578
-31.1252
-30.3228
-29.5485
-28.801
-28.079
-27.3818
-26.7089
-26.0587
-25.4306
-24.8229
-24.2363
-23.6691
-23.1208
-22.59
-22.0771
-21.5811
-21.1011
-20.6365
-20.1869
-19.752
-19.3311
-18.9233
-18.5285
-18.1464
-17.7764
-17.4181
-17.0706
-16.7344
-16.4087
-16.0931
-15.7872
-15.4908
-15.2038
-14.9256
-14.6559
-14.3946
-14.1415
-13.8962
-13.6585
-13.4279
-13.2047
-12.9885
-12.779
-12.5759
-12.3794
-12.189
-12.0048
-11.8263
-11.6535
-11.4865
-11.3249
-11.1687
-11.0175
-10.8716
-10.7307
-10.5947
-10.4634
-10.3369
-10.215
-10.0978
-9.98492
-9.8765
-9.7725
-9.67281
-9.57732
-9.48605
-9.399
-9.31608
-9.23727
-9.16245
-9.09176
-9.0251
-8.96246
-8.90378
-8.84911
-8.79845
-8.75177
-8.70904
-8.6703
-8.63556
-8.6048
-8.57802
-8.5552
-8.53639
-8.52156
-8.51071
-8.50381
-8.50089
-8.50191
-8.50684
-8.51568
-8.52838
-8.54489
-8.56516
-8.58914
-8.61679
-8.64797
-8.68263
-8.72066
-8.762
-8.80646
-8.85392
-8.90426
-8.95734
-9.01301
-9.07118
-9.13162
-9.19424
-9.25887
-9.3253
-9.39344
-9.46308
-9.53412
-9.60639
-9.6797
-9.75394
-9.82903
-9.90479
-9.98106
-10.0578
-10.1348
-10.2121
-10.2895
-10.367
-10.4444
-10.5216
-10.5987
-10.6755
-10.752
-10.8282
-10.9038
-10.9791
-11.0538
-11.128
-11.2017
-11.2747
-11.3471
-11.4188
-11.4899
-11.5603
-11.63
-11.6991
-11.7674
-11.835
-11.9018
-11.968
-12.0334
-12.098
-12.162
-12.2252
-12.2877
-12.3495
-12.4105
-12.4708
-12.5304
-12.5893
-12.6475
-12.705
-12.7619
-12.818
-12.8735
-12.9283
-12.9824
-13.0359
-13.0887
-13.1409
-13.1925
-13.2434
-13.2937
-13.3435
-13.3926
-13.4412
-13.4892
-13.5365
-13.5834
-13.6297
-13.6754
-13.7206
-13.7653
-13.8094
-13.8531
-13.8962
-13.9388
-13.9809
-14.0226
-14.0638
-14.1045
-14.1447
-14.1845
-14.2239
-14.2628
-14.3012
-14.3393
-14.3769
-14.4141
-14.4509
-14.4873
-14.5232
-14.5588
-14.5941
-14.6289
-14.6634
-14.6974
-14.7312
-14.7646
-14.7976
-14.8303
-14.8626
-14.8946
-14.9263
-14.9576
-14.9886
-15.0193
-15.0497
-15.0798
-15.1096
-15.1391
-15.1683
-15.1972
-15.2259
-15.2542
-15.2823
-15.3101
-15.3377
-15.3649
-15.392
-15.4187
-15.4452
-15.4715
-15.4975
-15.5233
-15.5488
-15.5741
-15.5992
-15.624
-15.6486
-15.673
-15.6972
-15.7211
-15.7448
-15.7684
-15.7917
-15.8148
-15.8377
-15.8605
-15.883
-15.9053
-15.9275
-15.9494
-15.9712
-15.9928
-16.0142
-16.0355
-16.0566
-16.0775
-16.0982
-16.1188
-16.1392
-16.1594
-16.1795
-16.1994
-16.2191
-16.2387
-16.2582
-16.2775
-16.2966
-16.3156
-16.3345
-16.3532
-16.3718
-16.3903
-16.4086
-16.4268
-16.4448
-16.4627
-16.4805
-16.4982
-16.5157
-16.5331
-16.5504
-16.5676
-16.5847
-16.6017
-16.6185
-16.6353
-16.6519
-16.6684
-16.6848
-16.7012
-16.7174
-16.7335
-16.7495
-16.7654
-16.7812
-16.7969
-16.8126
-16.8281
-16.8436
-16.8589
-16.8742
-16.8894
-16.9045
-16.9195
-16.9345
-16.9493
-16.9641
-16.9788
-16.9935
-17.008
-17.0226
-17.037
-17.0514
-17.0657
-17.08
-17.0942
-17.1083
-17.1388
-17.1527
-17.1664
-17.1801
-17.1937
-17.2071
-17.2205
-17.2337
-17.2468
-17.2599
-17.2728
-17.2857
-17.2984
-17.3111
-17.3237
-17.3361
-17.3485
-17.3608
-17.373
-17.3851
-17.3972
-17.4091
-17.421
-17.4327
-17.4444
-17.456
-17.4675
-17.479
-17.4903
-17.5016
-17.5128
-17.524
-17.535
-17.546
-17.5569
-17.5677
-17.5785
-17.5892
-17.5998
-17.6104
-17.6208
-17.6312
-17.6416
-17.6519
-17.6621
-17.6722
-17.6823
-17.6923
-17.7022
-17.7121
-17.722
-17.7317
-17.7414
-17.751
-17.7606
-17.7702
-17.7796
-17.789
-17.7984
-17.8076
-17.8169
-17.8261
-17.8352
-17.8442
-17.8532
-17.8622
-17.8711
-17.8799
-17.8887
-17.8975
-17.9062
-17.9148
-17.9234
-17.932
-17.9404
-17.9489
-17.9573
-17.9656
-17.9739
-17.9822
-17.9904
-17.9985
-18.0066
-18.0147
-18.0227
-18.0307
-18.0386
-18.0465
-18.0543
-18.0621
-18.0699
-18.0776
-18.0853
-18.0929
-18.1005
-18.108
-18.1155
-18.123
-18.1304
-18.1378
-18.1452
-18.1525
-18.1598
-18.1671
-18.1743
-18.1814
-18.1886
-18.1957
-18.2027
-18.2097
-18.2167
-18.2237
-18.2306
-18.2375
-18.2443
-18.2511
-18.2579
-18.2646
-18.2714
-18.278
-18.2847
-18.2913
-18.2978
-18.3044
-18.3109
-18.3174
-18.3238
-18.3302
-18.3366
-18.3429
-18.3492
-18.3555
-18.3618
-18.368
-18.3742
-18.3804
-18.3865
-18.3926
-18.3987
-18.4047
-18.4108
-18.4168
-18.4227
-18.4287
-18.4346
-18.4404
-18.4463
-18.4521
-18.4579
-18.4637
-18.4694
-18.4751
-18.4808
-18.4865
-18.4921
-18.4978
-18.5033
-18.5089
-18.5144
-18.52
-18.5254
-18.5309
-18.5363
-18.5418
-18.5471
-18.5525
-18.5579
-18.5632
-18.5685
-18.5737
-18.579
-18.5842
-18.5894
-18.5946
-18.5998
-18.6049
-18.61
-18.6151
-18.6202
-18.6252
-18.6303
-18.6353
-18.6403
-18.6452
-18.6502
-18.6551
-18.66
-18.6649
-18.6698
-18.6746
-18.6794
-18.6842
-18.689
-18.6938
-18.6985
-18.7032
-18.708
-18.7126
-18.7173
-18.722
-18.7266
-18.7312
-18.7358
-18.7404
-18.7449
-18.7495
-18.754
-18.7585
-18.763
-18.7675
-18.7719
-18.7763
-18.7808
-18.7852
-18.7896
-18.7939
-18.7983
-18.8026
-18.8069
-18.8113
-18.8155
-18.8198
-18.8241
-18.8283
-18.8326
-18.8368
-18.841
-18.8452
-18.8494
-18.8536
-18.8577
-18.8619
-18.866
-18.8701
-18.8742
-18.8783
-18.8824
-18.8864
-18.8905
-18.8945
-18.8985
-18.9025
-18.9065
-18.9104
-18.9144
-18.9183
-18.9222
-18.9262
-18.9301
-18.9339
-18.9378
-18.9417
-18.9455
-18.9494
-18.9532
-18.957
-18.9608
-18.9646
-18.9683
-18.9721
-18.9758
-18.9796
-18.9833
-18.987
-18.9907
-18.9944
-18.9981
-19.0017
-19.0054
-19.009
-19.0126
-19.0163
-19.0199
-19.0235
-19.027
-19.0306
-19.0342
-19.0377
-19.0413
-19.0448
-19.0483
-19.0518
-19.0553
-19.0588
-19.0623
-19.0657
-19.0692
-19.0726
-19.0761
-19.0795
-19.0829
-19.0863
-19.0897
-19.0931
-19.0965
-19.0998
-19.1032
-19.1065
-19.1099
-19.1132
-19.1165
-19.1198
-19.1231
-19.1264
-19.1297
-19.133
-19.1362
-19.1395
-19.1427
-19.146
-19.1492
-19.1524
-19.1556
-19.1588
-19.162
-19.1652
-19.1684
-19.1716
-19.1747
-19.1779
-19.181
-19.1842
-19.1873
-19.1904
-19.1935
-19.1966
-19.1997
-19.2028
-19.2059
-19.209
-19.2121
-19.2151
-19.2182
-19.2212
-19.2243
-19.2273
-19.2303
-19.2333
-19.2363
-19.2393
-19.2423
-19.2453
-19.2483
-19.2513
-19.2543
-19.2572
-19.2602
-19.2632
-19.2662
-19.2691
-19.2721
-19.275
-19.278
-19.2809
-19.2839
-19.2868
-19.2897
-19.2926
-19.2955
-19.2984
-19.3013
-19.3042
-19.3071
-19.31
-19.3129
-19.3158
-19.3186
-19.3215
-19.3243
-19.3272
-19.33
-19.3329
-19.3357
-19.3386
-19.3414
-19.3442
-19.347
-19.3498
-19.3526
-19.3555
-19.3583
-19.3611
-19.3638
-19.3666
-19.3694
-19.3722
-19.375
-19.3777
-19.3805
-19.3833
-19.386
-19.3888
-19.3916
-19.3943
-19.3971
-19.3998
-19.4026
-19.4053
-19.408
-19.4108
-19.4135
-19.4162
-19.419
-19.4217
-19.4244
-19.4271
-19.4299
-19.4326
-19.4353
-19.438
-19.4407
-19.4434
-19.4461
-19.4489
-19.4516
-19.4543
-19.457
-19.4597
-19.4624
-19.4651
-19.4678
-19.4705
-19.4732
-19.4759
-19.4786
-19.4813
-19.484
-19.4867
-19.4894
-19.4921
-19.4948
-19.4975
-19.5004
-19.5039
-19.508
-19.5129
-19.5186
-19.5253
-19.5331
-19.5424
-19.5531
-19.5657
-19.5803
-19.5972
-19.6167
-19.6391
-19.6649
-19.6943
-19.7277
-19.7656
-19.8082
-19.8558
-19.9089
-19.9675
-20.032
-20.1024
-20.1789
-20.2616
-20.3505
-20.4458
-20.5476
-20.6558
-20.7702
-20.89
-21.0135
-21.1382
-21.2601
-21.3742
-21.4742
-21.5525
-21.5993
-23.3467
-23.4661
-24.1126
-24.8883
-25.0324
-23.8862
-21.7048
-19.4396
-17.7349
-16.679
-16.0372
-15.4925
-14.8938
-14.2315
-13.4929
-12.6603
-11.7077
-10.5942
-9.25144
-7.55914
-5.33545
-23.3513
-23.4805
-24.1589
-25.0177
-25.3229
-24.3978
-22.433
-20.3291
-18.7251
-17.7261
-17.1176
-16.6007
-16.0321
-15.4033
-14.7029
-13.9161
-13.0225
-11.9945
-10.7966
-9.39314
-7.79534
-23.3559
-23.4949
-24.2053
-25.147
-25.6137
-24.9117
-23.1686
-21.2347
-19.7417
-18.8083
-18.2396
-17.7567
-17.2264
-16.6415
-15.9933
-15.271
-14.462
-13.5526
-12.5326
-11.4075
-10.2289
-23.3605
-23.5094
-24.2516
-25.2763
-25.9048
-25.4277
-23.9112
-22.1556
-20.7831
-19.9234
-19.4002
-18.9568
-18.4714
-17.9386
-17.3524
-16.7064
-15.9946
-15.2133
-14.366
-13.4717
-12.5777
-23.365
-23.5238
-24.2979
-25.4056
-26.1963
-25.9457
-24.6603
-23.0908
-21.8477
-21.0686
-20.5956
-20.1959
-19.7603
-19.2852
-18.767
-18.2029
-17.5917
-16.9354
-16.2432
-15.5355
-14.8482
-23.3696
-23.5382
-24.3442
-25.5349
-26.4879
-26.4653
-25.4154
-24.0394
-22.9333
-22.2404
-21.8213
-21.4685
-21.0859
-20.6717
-20.2243
-19.7433
-19.2305
-18.6908
-18.1348
-17.5803
-17.0535
-23.3742
-23.5526
-24.3905
-25.6642
-26.7797
-26.9865
-26.1761
-25
-24.0375
-23.4352
-23.0725
-22.7686
-22.441
-22.089
-21.7127
-21.3134
-20.8942
-20.4613
-20.0248
-19.5995
-19.2042
-23.3788
-23.5671
-24.4367
-25.7934
-27.0716
-27.509
-26.9418
-25.9714
-25.1578
-24.6493
-24.3447
-24.0906
-23.8186
-23.5289
-23.2226
-22.9018
-22.5706
-22.2352
-21.9046
-21.5908
-21.3077
-23.3833
-23.5815
-24.483
-25.9226
-27.3636
-28.0328
-27.712
-26.9523
-26.2917
-25.879
-25.6332
-25.4293
-25.2127
-24.9843
-24.7458
-24.4999
-24.2509
-24.0046
-23.7689
-23.5534
-23.3689
-23.3879
-23.5959
-24.5292
-26.0517
-27.6556
-28.5574
-28.486
-27.9411
-27.4366
-27.1207
-26.9338
-26.7798
-26.6179
-26.4492
-26.2759
-26.101
-25.9286
-25.7642
-25.6145
-25.4874
-25.3913
-23.3925
-23.6103
-24.5754
-26.1808
-27.9476
-29.0828
-29.2632
-28.9366
-28.59
-28.371
-28.2425
-28.1378
-28.0291
-27.9182
-27.8074
-27.6996
-27.5989
-27.5101
-27.4391
-27.3924
-27.3769
-23.3971
-23.6247
-24.6216
-26.3097
-28.2394
-29.6088
-30.0431
-29.9373
-29.7494
-29.6269
-29.556
-29.4994
-29.4426
-29.3874
-29.3361
-29.2918
-29.2581
-29.2396
-29.2412
-29.2685
-29.3272
-23.4016
-23.6391
-24.6678
-26.4386
-28.5312
-30.1351
-30.8251
-30.9418
-30.9126
-30.8854
-30.871
-30.8613
-30.8546
-30.8528
-30.8583
-30.874
-30.9034
-30.9504
-31.0194
-31.1154
-31.2431
-23.4062
-23.6535
-24.7139
-26.5674
-28.8227
-30.6616
-31.6084
-31.9485
-32.0772
-32.1438
-32.1845
-32.2203
-32.262
-32.3115
-32.3711
-32.4436
-32.5322
-32.6406
-32.7727
-32.9327
-33.1249
-23.4108
-23.6679
-24.76
-26.696
-29.1139
-31.1879
-32.3924
-32.9562
-33.2414
-33.3997
-33.494
-33.5739
-33.6622
-33.7607
-33.8718
-33.9981
-34.1427
-34.3088
-34.5
-34.72
-34.9728
-23.4154
-23.6823
-24.8061
-26.8246
-29.4048
-31.7139
-33.1765
-33.9636
-34.4031
-34.6511
-34.7974
-34.9198
-35.0528
-35.1982
-35.3584
-35.5358
-35.7332
-35.9537
-36.2005
-36.477
-36.7868
-23.4199
-23.6967
-24.8521
-26.953
-29.6954
-32.2394
-33.9602
-34.9693
-35.5607
-35.8958
-36.0924
-36.2558
-36.4318
-36.6221
-36.829
-37.0549
-37.3023
-37.5741
-37.8734
-38.2032
-38.5668
-23.4245
-23.711
-24.8982
-27.0813
-29.9855
-32.7642
-34.7427
-35.9722
-36.7124
-37.1323
-37.3774
-37.5803
-37.7974
-38.0306
-38.282
-38.5539
-38.8487
-39.1691
-39.518
-39.8981
-40.3125
-23.4291
-23.7254
-24.9442
-27.2094
-30.2752
-33.2881
-35.5235
-36.9711
-37.8569
-38.3588
-38.6508
-38.8916
-39.1481
-39.4223
-39.7161
-40.0317
-40.3715
-40.7379
-41.1336
-41.5613
-42.0237
-23.4337
-23.7398
-24.9901
-27.3374
-30.5643
-33.8108
-36.3019
-37.9649
-38.9928
-39.574
-39.911
-40.1882
-40.4825
-40.7958
-41.13
-41.4871
-41.8695
-42.2794
-42.7195
-43.1922
-43.7001
-23.4382
-23.7542
-25.0361
-27.4652
-30.8528
-34.3321
-37.0774
-38.9525
-40.1185
-40.7763
-41.1567
-41.4688
-41.7992
-42.1498
-42.5224
-42.919
-43.3418
-43.793
-44.275
-44.7902
-45.3412
-23.4428
-23.7685
-25.082
-27.5928
-31.1407
-34.8518
-37.8493
-39.933
-41.2332
-41.9648
-42.3868
-42.7323
-43.0972
-43.4833
-43.8925
-44.3266
-44.7877
-45.278
-45.7997
-46.3551
-46.9467
-23.4474
-23.7829
-25.1278
-27.7202
-31.4279
-35.3697
-38.6172
-40.9054
-42.3357
-43.1383
-43.6003
-43.9776
-44.3755
-44.7955
-45.2395
-45.7091
-46.2065
-46.7338
-47.293
-47.8864
-48.5164
-23.4519
-23.7972
-25.1737
-27.8474
-31.7144
-35.8857
-39.3805
-41.8689
-43.4251
-44.296
-44.7961
-45.204
-45.6333
-46.0856
-46.5625
-47.0659
-47.5977
-48.1599
-48.7546
-49.3839
-50.05
-23.4565
-23.8116
-25.2194
-27.9744
-32
-36.3994
-40.1387
-42.8227
-44.5005
-45.4368
-45.9734
-46.4105
-46.8697
-47.3527
-47.8609
-48.3963
-48.9606
-49.5559
-50.184
-50.8471
-51.5474
-23.4611
-23.8259
-25.2652
-28.1013
-32.2848
-36.9107
-40.8913
-43.7662
-45.5612
-46.5602
-47.1317
-47.5966
-48.0842
-48.5963
-49.1343
-49.6999
-50.295
-50.9214
-51.5811
-52.276
-53.0083
-23.4657
-23.8402
-25.3109
-28.2278
-32.5687
-37.4195
-41.6379
-44.6985
-46.6063
-47.6653
-48.2701
-48.7614
-49.2762
-49.8158
-50.3819
-50.9761
-51.6002
-52.256
-52.9454
-53.6702
-54.4326
-23.4702
-23.8546
-25.3566
-28.3542
-32.8517
-37.9254
-42.3779
-45.619
-47.6352
-48.7516
-49.388
-49.9045
-50.4449
-51.0107
-51.6034
-52.2246
-52.876
-53.5594
-54.2767
-55.0295
-55.82
-23.4748
-23.8689
-25.4022
-28.4803
-33.1336
-38.4283
-43.1109
-46.5271
-48.6474
-49.8184
-50.485
-51.0253
-51.59
-52.1805
-52.7984
-53.445
-54.1221
-54.8315
-55.5748
-56.3539
-57.1707
-23.4794
-23.8832
-25.4478
-28.6061
-33.4145
-38.9281
-43.8365
-47.4224
-49.6423
-50.8654
-51.5606
-52.1235
-52.7112
-53.3251
-53.9665
-54.6371
-55.3384
-56.0721
-56.8398
-57.6434
-58.4846
-23.4839
-23.8975
-25.4933
-28.7317
-33.6943
-39.4246
-44.5544
-48.3043
-50.6195
-51.892
-52.6144
-53.1987
-53.8081
-54.4439
-55.1077
-55.8007
-56.5246
-57.281
-58.0715
-58.8978
-59.7618
-23.4885
-23.9118
-25.5388
-28.8569
-33.9729
-39.9175
-45.2642
-49.1724
-51.5786
-52.8981
-53.646
-54.2505
-54.8804
-55.537
-56.2216
-56.9356
-57.6806
-58.4582
-59.2699
-60.1174
-61.0024
-23.4931
-23.9261
-25.5842
-28.982
-34.2503
-40.4067
-45.9655
-50.0263
-52.5193
-53.8832
-54.6553
-55.2789
-55.928
-56.604
-57.3081
-58.0418
-58.8065
-59.6038
-60.4351
-61.3022
-62.2065
-23.4976
-23.9404
-25.6296
-29.1067
-34.5264
-40.8921
-46.658
-50.8657
-53.4412
-54.8471
-55.6421
-56.2835
-56.9507
-57.6448
-58.3672
-59.1192
-59.9022
-60.7178
-61.5673
-62.4523
-63.3745
-23.5022
-23.9547
-25.675
-29.2311
-34.8013
-41.3735
-47.3415
-51.6902
-54.344
-55.7896
-56.6061
-57.2643
-57.9483
-58.6595
-59.3989
-60.1679
-60.9678
-61.8002
-62.6664
-63.568
-64.5064
-23.5068
-23.969
-25.7203
-29.3552
-35.0748
-41.8507
-48.0156
-52.4996
-55.2276
-56.7105
-57.5471
-58.221
-58.9208
-59.6478
-60.403
-61.1877
-62.0033
-62.8512
-63.7327
-64.6494
-65.6026
-23.5113
-23.9833
-25.7655
-29.479
-35.3469
-42.3237
-48.68
-53.2935
-56.0917
-57.6097
-58.4651
-59.1537
-59.8682
-60.6098
-61.3796
-62.1788
-63.0088
-63.8709
-64.7664
-65.6968
-66.6633
-23.5159
-23.9975
-25.8107
-29.6024
-35.6176
-42.7921
-49.3346
-54.0718
-56.9363
-58.4871
-59.3601
-60.0623
-60.7904
-61.5456
-62.3289
-63.1415
-63.9846
-64.8596
-65.7678
-66.7105
-67.6891
-23.5205
-24.0118
-25.8558
-29.7255
-35.8868
-43.256
-49.9792
-54.8344
-57.7612
-59.3427
-60.232
-60.9469
-61.6876
-62.4553
-63.2509
-64.0757
-64.9308
-65.8176
-66.7372
-67.6909
-68.6801
-23.525
-24.026
-25.9009
-29.8483
-36.1544
-43.7152
-50.6134
-55.581
-58.5664
-60.1764
-61.0809
-61.8075
-62.5598
-63.3389
-64.1459
-64.9818
-65.8477
-66.7451
-67.6749
-68.6384
-69.637
-23.5296
-24.0403
-25.9459
-29.9707
-36.4205
-44.1695
-51.2373
-56.3116
-59.3518
-60.9884
-61.9069
-62.6442
-63.4072
-64.1968
-65.014
-65.8599
-66.7357
-67.6424
-68.5813
-69.5535
-70.5602
-23.5342
-24.0545
-25.9909
-30.0927
-36.685
-44.619
-51.8505
-57.0261
-60.1176
-61.7787
-62.71
-63.4572
-64.2299
-65.029
-65.8555
-66.7104
-67.5948
-68.5099
-69.4567
-70.4364
-71.4502
-23.5387
-24.0687
-26.0357
-30.2144
-36.9479
-45.0633
-52.453
-57.7243
-60.8635
-62.5472
-63.4903
-64.2465
-65.028
-65.8356
-66.6705
-67.5334
-68.4255
-69.3479
-70.3016
-71.2877
-72.3073
-23.5433
-24.083
-26.0806
-30.3357
-37.209
-45.5025
-53.0446
-58.4063
-61.5897
-63.2942
-64.248
-65.0123
-65.8017
-66.6171
-67.4593
-68.3293
-69.2282
-70.1569
-71.1164
-72.1079
-73.1323
-23.5479
-24.0972
-26.1254
-30.4566
-37.4684
-45.9364
-53.6253
-59.0721
-62.2964
-64.0197
-64.9833
-65.7549
-66.5514
-67.3736
-68.2223
-69.0985
-70.0031
-70.9372
-71.9016
-72.8974
-73.9257
-23.5524
-24.1114
-26.1701
-30.5771
-37.7261
-46.3649
-54.1948
-59.7215
-62.9835
-64.724
-65.6963
-66.4745
-67.2773
-68.1054
-68.9598
-69.8413
-70.7508
-71.6893
-72.6577
-73.6569
-74.688
-23.557
-24.1256
-26.2147
-30.6972
-37.9819
-46.788
-54.7533
-60.3548
-63.6512
-65.4072
-66.3872
-67.1713
-67.9795
-68.8129
-69.6721
-70.5581
-71.4716
-72.4137
-73.3851
-74.3869
-75.4198
-23.5615
-24.1398
-26.2593
-30.8168
-38.236
-47.2056
-55.3005
-60.9719
-64.2997
-66.0695
-67.0564
-67.8455
-68.6585
-69.4963
-70.3596
-71.2492
-72.166
-73.1108
-74.0844
-75.0878
-76.1218
-23.5661
-24.1539
-26.3038
-30.9361
-38.4881
-47.6176
-55.8365
-61.5729
-64.9291
-66.7111
-67.7041
-68.4975
-69.3146
-70.1561
-71.0227
-71.9152
-72.8344
-73.7811
-74.7562
-75.7604
-76.7946
-23.5707
-24.1681
-26.3482
-31.0549
-38.7384
-48.0239
-56.3613
-62.1578
-65.5396
-67.3323
-68.3304
-69.1276
-69.948
-70.7925
-71.6617
-72.5564
-73.4773
-74.4252
-75.4009
-76.4051
-77.4387
-23.5752
-24.1823
-26.3926
-31.1733
-38.9867
-48.4245
-56.8747
-62.7268
-66.1314
-67.9333
-68.9358
-69.736
-70.5591
-71.4059
-72.2771
-73.1732
-74.0951
-75.0435
-76.0191
-77.0226
-78.0549
-23.5798
-24.1964
-26.4369
-31.2913
-39.233
-48.8192
-57.3768
-63.2799
-66.7046
-68.5144
-69.5204
-70.323
-71.1483
-71.9967
-72.8691
-73.7661
-74.6883
-75.6365
-76.6113
-77.6135
-78.6437
-23.5843
-24.2106
-26.4812
-31.4087
-39.4774
-49.2081
-57.8676
-63.8174
-67.2595
-69.0758
-70.0846
-70.8891
-71.7158
-72.5654
-73.4384
-74.3355
-75.2574
-76.2047
-77.1781
-78.1783
-79.2058
-23.5889
-24.2247
-26.5253
-31.5258
-39.7197
-49.5912
-58.3471
-64.3393
-67.7964
-69.6178
-70.6288
-71.4345
-72.2621
-73.1122
-73.9853
-74.882
-75.8029
-76.7488
-77.7202
-78.7176
-79.7419
-23.5934
-24.2389
-26.5694
-31.6423
-39.96
-49.9683
-58.8154
-64.8457
-68.3155
-70.1408
-71.1532
-71.9597
-72.7876
-73.6376
-74.5102
-75.4059
-76.3254
-77.2692
-78.2379
-79.2322
-80.2525
-23.598
-24.253
-26.6134
-31.7584
-40.1982
-50.3394
-59.2725
-65.3369
-68.817
-70.6451
-71.6582
-72.4649
-73.2927
-74.1421
-75.0137
-75.9078
-76.8252
-77.7665
-78.7321
-79.7225
-80.7384
-23.6026
-24.2671
-26.6574
-31.874
-40.4343
-50.7045
-59.7184
-65.8131
-69.3012
-71.1308
-72.1441
-72.9506
-73.7777
-74.626
-75.496
-76.3882
-77.303
-78.2412
-79.2031
-80.1893
-81.2002
-23.6071
-24.2812
-26.7012
-31.9891
-40.6682
-51.0636
-60.1531
-66.2743
-69.7683
-71.5985
-72.6113
-73.4171
-74.2431
-75.0898
-75.9578
-76.8474
-77.7593
-78.6938
-79.6516
-80.633
-81.6385
-23.6117
-24.2953
-26.745
-32.1038
-40.9
-51.4166
-60.5768
-66.7208
-70.2186
-72.0483
-73.0601
-73.8647
-74.6891
-75.5339
-76.3994
-77.286
-78.1944
-79.1249
-80.0781
-81.0543
-82.0539
-23.6162
-24.3094
-26.7887
-32.2179
-41.1297
-51.7636
-60.9896
-67.1527
-70.6525
-72.4806
-73.4909
-74.2939
-75.1164
-75.9587
-76.8213
-77.7045
-78.609
-79.5351
-80.4832
-81.4537
-82.4472
-23.6208
-24.3235
-26.8323
-32.3315
-41.3571
-52.1044
-61.3914
-67.5703
-71.0701
-72.8958
-73.9041
-74.7051
-75.5251
-76.3646
-77.2239
-78.1034
-79.0035
-79.9248
-80.8675
-81.832
-82.8188
-23.6253
-24.3375
-26.8759
-32.4446
-41.5823
-52.4392
-61.7824
-67.9739
-71.4719
-73.2942
-74.3
-75.0986
-75.9159
-76.7521
-77.6078
-78.4831
-79.3786
-80.2946
-81.2315
-82.1896
-83.1694
-23.6299
-24.3516
-26.9194
-32.5571
-41.8053
-52.7678
-62.1627
-68.3635
-71.8581
-73.6762
-74.6789
-75.4749
-76.289
-77.1217
-77.9733
-78.8441
-79.7346
-80.645
-81.5758
-82.5272
-83.4997
-23.6344
-24.3656
-26.9627
-32.6692
-42.026
-53.0904
-62.5325
-68.7394
-72.2289
-74.042
-75.0413
-75.8342
-76.6449
-77.4737
-78.3209
-79.1869
-80.072
-80.9766
-81.9009
-82.8454
-83.8102
-23.639
-24.3797
-27.006
-32.7807
-42.2445
-53.4068
-62.8916
-69.1019
-72.5847
-74.392
-75.3875
-76.1771
-76.984
-77.8085
-78.6511
-79.5119
-80.3914
-81.2898
-82.2074
-83.1446
-84.1015
-23.6435
-24.3937
-27.0492
-32.8916
-42.4606
-53.7172
-63.2404
-69.4511
-72.9258
-74.7266
-75.7179
-76.5038
-77.3066
-78.1267
-78.9643
-79.8197
-80.6932
-81.5852
-82.4958
-83.4254
-84.3741
-23.6481
-24.4077
-27.0924
-33.0021
-42.6745
-54.0215
-63.5789
-69.7873
-73.2525
-75.0461
-76.0328
-76.8148
-77.6132
-78.4285
-79.2609
-80.1106
-80.978
-81.8632
-82.7666
-83.6884
-84.6288
-23.6526
-24.4217
-27.1354
-33.1119
-42.886
-54.3197
-63.9072
-70.1108
-73.565
-75.3509
-76.3327
-77.1104
-77.9043
-78.7145
-79.5414
-80.3852
-81.2461
-82.1244
-83.0204
-83.9342
-84.866
-23.6572
-24.4357
-27.1783
-33.2212
-43.0952
-54.6118
-64.2255
-70.4217
-73.8638
-75.6412
-76.6177
-77.391
-78.1801
-78.985
-79.8062
-80.6438
-81.4981
-82.3693
-83.2576
-84.1632
-85.0862
-23.6617
-24.4497
-27.2212
-33.33
-43.3021
-54.8979
-64.5338
-70.7202
-74.149
-75.9174
-76.8885
-77.6571
-78.441
-79.2405
-80.0558
-80.887
-81.7344
-82.5983
-83.4787
-84.3759
-85.2901
-23.6662
-24.4637
-27.264
-33.4382
-43.5066
-55.178
-64.8324
-71.0068
-74.4211
-76.1799
-77.1452
-77.9089
-78.6876
-79.4814
-80.2905
-81.1152
-81.9556
-82.8119
-83.6843
-84.573
-85.4781
-23.6708
-24.4777
-27.3067
-33.5458
-43.7088
-55.4522
-65.1214
-71.2814
-74.6802
-76.429
-77.3882
-78.1469
-78.92
-79.708
-80.5108
-81.3287
-82.1619
-83.0106
-83.8749
-84.7549
-85.6507
-23.6753
-24.4916
-27.3492
-33.6528
-43.9086
-55.7203
-65.4008
-71.5445
-74.9268
-76.6651
-77.6179
-78.3713
-79.1388
-79.9207
-80.7171
-81.5281
-82.3539
-83.1948
-84.0508
-84.922
-85.8085
-23.6799
-24.5056
-27.3917
-33.7592
-44.106
-55.9826
-65.6708
-71.7962
-75.161
-76.8883
-77.8346
-78.5826
-79.3443
-80.12
-80.9097
-81.7137
-82.5321
-83.365
-84.2125
-85.0748
-85.952
-23.6844
-24.5195
-27.4341
-33.8651
-44.301
-56.239
-65.9316
-72.0368
-75.3832
-77.0992
-78.0387
-78.7811
-79.5368
-80.3062
-81.0892
-81.8859
-82.6967
-83.5216
-84.3606
-85.2139
-86.0816
-23.689
-24.5334
-27.4764
-33.9703
-44.4936
-56.4895
-66.1834
-72.2665
-75.5936
-77.2979
-78.2305
-78.9672
-79.7168
-80.4796
-81.2557
-82.0452
-82.8483
-83.665
-84.4954
-85.3397
-86.1978
-23.6935
-24.5473
-27.5187
-34.075
-44.6838
-56.7342
-66.4261
-72.4855
-75.7927
-77.4848
-78.4104
-79.1411
-79.8845
-80.6407
-81.4099
-82.192
-82.9872
-83.7956
-84.6174
-85.4525
-86.301
-23.698
-24.5612
-27.5608
-34.1791
-44.8716
-56.9732
-66.6601
-72.6941
-75.9805
-77.6603
-78.5786
-79.3033
-80.0404
-80.7899
-81.5519
-82.3265
-83.1138
-83.914
-84.727
-85.5529
-86.3918
-23.7026
-24.5751
-27.6028
-34.2825
-45.057
-57.2064
-66.8855
-72.8925
-76.1575
-77.8246
-78.7354
-79.4541
-80.1847
-80.9274
-81.6822
-82.4493
-83.2286
-84.0204
-84.8246
-85.6413
-86.4705
-23.7071
-24.589
-27.6447
-34.3854
-45.24
-57.434
-67.1023
-73.0809
-76.3239
-77.978
-78.8813
-79.5938
-80.3178
-81.0536
-81.8012
-82.5606
-83.3319
-84.1152
-84.9106
-85.718
-86.5376
-23.7116
-24.6028
-27.6865
-34.4876
-45.4206
-57.6559
-67.3107
-73.2596
-76.48
-78.1208
-79.0165
-79.7226
-80.4401
-81.1689
-81.9091
-82.6608
-83.4241
-84.1989
-84.9854
-85.7836
-86.5934
-23.7162
-24.6167
-27.7282
-34.5892
-45.5987
-57.8723
-67.511
-73.4288
-76.626
-78.2534
-79.1412
-79.841
-80.5518
-81.2736
-82.0064
-82.7504
-83.5055
-84.2718
-85.0494
-85.8383
-86.6384
-23.7207
-24.6305
-27.7698
-34.6902
-45.7745
-58.0831
-67.7032
-73.5887
-76.7622
-78.376
-79.2559
-79.9493
-80.6533
-81.3679
-82.0934
-82.8295
-83.5765
-84.3343
-85.103
-85.8826
-86.673
-23.7252
-24.6444
-27.8114
-34.7905
-45.9478
-58.2885
-67.8874
-73.7396
-76.8889
-78.4888
-79.3608
-80.0477
-80.7448
-81.4524
-82.1703
-82.8986
-83.6374
-84.3867
-85.1465
-85.9168
-86.6975
-23.7298
-24.6582
-27.8528
-34.8902
-46.1187
-58.4884
-68.0639
-73.8816
-77.0064
-78.5922
-79.4562
-80.1365
-80.8268
-81.5271
-82.2375
-82.958
-83.6886
-84.4294
-85.1802
-85.9412
-86.7123
-23.7343
-24.672
-27.8941
-34.9893
-46.2872
-58.683
-68.2328
-74.0149
-77.1148
-78.6865
-79.5423
-80.216
-80.8994
-81.5925
-82.2954
-83.008
-83.7304
-84.4626
-85.2046
-85.9564
-86.7178
-23.7388
-24.6858
-27.9353
-35.0878
-46.4533
-58.8723
-68.3943
-74.1399
-77.2145
-78.7719
-79.6195
-80.2866
-80.963
-81.6489
-82.3442
-83.049
-83.7632
-84.4868
-85.2199
-85.9624
-86.7143
-23.7434
-24.6996
-27.9764
-35.1856
-46.617
-59.0564
-68.5484
-74.2566
-77.3056
-78.8486
-79.688
-80.3484
-81.0179
-81.6965
-82.3843
-83.0811
-83.7871
-84.5023
-85.2265
-85.9598
-86.7022
-23.7479
-24.7133
-28.0174
-35.2828
-46.7783
-59.2352
-68.6953
-74.3654
-77.3884
-78.9169
-79.748
-80.4018
-81.0643
-81.7357
-82.4158
-83.1048
-83.8026
-84.5093
-85.2247
-85.9489
-86.6817
-23.7524
-24.7271
-28.0583
-35.3793
-46.9372
-59.4089
-68.8352
-74.4663
-77.4632
-78.9771
-79.7999
-80.447
-81.1025
-81.7666
-82.4392
-83.1203
-83.81
-84.5081
-85.2148
-85.9298
-86.6532
-23.7569
-24.7408
-28.099
-35.4752
-47.0937
-59.5776
-68.9682
-74.5597
-77.5302
-79.0295
-79.8439
-80.4842
-81.1328
-81.7896
-82.4547
-83.1279
-83.8094
-84.4992
-85.197
-85.903
-86.6171
-23.7615
-24.7546
-28.1397
-35.5704
-47.2478
-59.7412
-69.0945
-74.6456
-77.5896
-79.0741
-79.8803
-80.5138
-81.1554
-81.8049
-82.4624
-83.1279
-83.8013
-84.4826
-85.1718
-85.8688
-86.5735
-23.766
-24.7683
-28.1803
-35.665
-47.3996
-59.8999
-69.2141
-74.7244
-77.6416
-79.1114
-79.9092
-80.536
-81.1706
-81.8128
-82.4628
-83.1205
-83.7858
-84.4588
-85.1393
-85.8273
-86.5228
-23.7705
-24.782
-28.2207
-35.7589
-47.5489
-60.0538
-69.3273
-74.7962
-77.6865
-79.1415
-79.9309
-80.551
-81.1786
-81.8136
-82.4561
-83.106
-83.7632
-84.4279
-85.0998
-85.779
-86.4653
-23.775
-24.7957
-28.261
-35.8521
-47.6959
-60.2028
-69.4342
-74.8611
-77.7244
-79.1646
-79.9457
-80.559
-81.1796
-81.8074
-82.4425
-83.0846
-83.7339
-84.3902
-85.0536
-85.724
-86.4012
-23.7796
-24.8094
-28.3013
-35.9447
-47.8406
-60.3471
-69.5349
-74.9194
-77.7556
-79.181
-79.9537
-80.5603
-81.174
-81.7946
-82.4222
-83.0566
-83.6979
-84.3461
-85.001
-85.6626
-86.3308
-23.7841
-24.823
-28.3414
-36.0366
-47.9829
-60.4866
-69.6296
-74.9712
-77.7803
-79.1908
-79.9552
-80.5552
-81.1619
-81.7753
-82.3955
-83.0223
-83.6557
-84.2957
-84.9422
-85.5951
-86.2544
-23.7886
-24.8367
-28.3814
-36.1279
-48.1228
-60.6216
-69.7183
-75.0167
-77.7986
-79.1943
-79.9504
-80.5437
-81.1435
-81.7498
-82.3626
-82.9818
-83.6073
-84.2392
-84.8774
-85.5217
-86.1721
-23.7931
-24.8503
-28.4213
-36.2185
-48.2604
-60.752
-69.8013
-75.0562
-77.8108
-79.1918
-79.9395
-80.5261
-81.1191
-81.7183
-82.3237
-82.9354
-83.5531
-84.177
-84.8069
-85.4427
-86.0843
-23.7976
-24.8639
-28.461
-36.3084
-48.3958
-60.8779
-69.8786
-75.0897
-77.817
-79.1832
-79.9228
-80.5027
-81.0888
-81.681
-82.2791
-82.8833
-83.4933
-84.1092
-84.7308
-85.3582
-85.9912
-23.8021
-24.8776
-28.5007
-36.3977
-48.5288
-60.9994
-69.9504
-75.1174
-77.8175
-79.169
-79.9003
-80.4737
-81.0529
-81.6381
-82.229
-82.8257
-83.428
-84.036
-84.6495
-85.2685
-85.8929
-23.8067
-24.8912
-28.5402
-36.4862
-48.6595
-61.1165
-70.0168
-75.1395
-77.8124
-79.1492
-79.8723
-80.4391
-81.0116
-81.5898
-82.1735
-82.7628
-83.3575
-83.9577
-84.5632
-85.1739
-85.7898
-23.8112
-24.9047
-28.5797
-36.5741
-48.7879
-61.2294
-70.078
-75.1562
-77.8018
-79.1241
-79.839
-80.3993
-80.9651
-81.5363
-82.1129
-82.6948
-83.282
-83.8744
-84.4719
-85.0745
-85.682
-23.8157
-24.9183
-28.619
-36.6614
-48.9141
-61.338
-70.134
-75.1676
-77.7861
-79.0938
-79.8006
-80.3544
-80.9135
-81.4778
-82.0473
-82.622
-83.2017
-83.7864
-84.376
-84.9705
-85.5696
-23.8202
-24.9319
-28.6581
-36.7479
-49.038
-61.4424
-70.185
-75.1739
-77.7653
-79.0585
-79.7572
-80.3045
-80.857
-81.4145
-81.977
-82.5444
-83.1167
-83.6938
-84.2756
-84.8621
-85.453
-23.8247
-24.9454
-28.6972
-36.8338
-49.1596
-61.5427
-70.2311
-75.1752
-77.7395
-79.0183
-79.709
-80.2499
-80.7958
-81.3465
-81.9021
-82.4623
-83.0273
-83.5969
-84.1709
-84.7495
-85.3323
-23.8292
-24.9589
-28.7362
-36.919
-49.279
-61.6391
-70.2724
-75.1716
-77.709
-78.9735
-79.6562
-80.1908
-80.7301
-81.2741
-81.8227
-82.3759
-82.9336
-83.4957
-84.0622
-84.6329
-85.2077
-23.8337
-24.9725
-28.775
-37.0035
-49.3962
-61.7314
-70.3091
-75.1634
-77.6739
-78.9242
-79.599
-80.1272
-80.66
-81.1974
-81.7392
-82.2853
-82.8358
-83.3905
-83.9494
-84.5124
-85.0793
-23.8382
-24.986
-28.8137
-37.0873
-49.5112
-61.8199
-70.3412
-75.1506
-77.6344
-78.8705
-79.5374
-80.0594
-80.5858
-81.1165
-81.6515
-82.1907
-82.7341
-83.2815
-83.8329
-84.3882
-84.9473
-23.8427
-24.9994
-28.8523
-37.1704
-49.624
-61.9045
-70.3689
-75.1334
-77.5906
-78.8126
-79.4717
-79.9875
-80.5075
-81.0317
-81.56
-82.0923
-82.6286
-83.1688
-83.7128
-84.2606
-84.8119
-23.8472
-25.0129
-28.8908
-37.2529
-49.7347
-61.9853
-70.3923
-75.1119
-77.5427
-78.7507
-79.4021
-79.9116
-80.4253
-80.943
-81.4647
-81.9902
-82.5195
-83.0526
-83.5893
-84.1296
-84.6733
-23.8517
-25.0264
-28.9291
-37.3347
-49.8431
-62.0624
-70.4115
-75.0862
-77.4907
-78.6849
-79.3285
-79.832
-80.3394
-80.8507
-81.3657
-81.8845
-82.4069
-82.933
-83.4625
-83.9954
-84.5316
-23.8562
-25.0398
-28.9673
-37.4158
-49.9495
-62.1359
-70.4265
-75.0566
-77.4349
-78.6153
-79.2513
-79.7487
-80.2499
-80.7548
-81.2634
-81.7755
-82.2911
-82.8101
-83.3325
-83.8581
-84.3869
-23.8607
-25.0532
-29.0054