/*--------------------------------*- C++ -*----------------------------------*\
  =========                 |
  \\      /  F ield         | OpenFOAM: The Open Source CFD Toolbox
   \\    /   O peration     | Website:  https://openfoam.org
    \\  /    A nd           | Version:  7
     \\/     M anipulation  |
\*---------------------------------------------------------------------------*/
FoamFile
{
    version     2.0;
    format      ascii;
    class       volVectorField;
    location    "0/dielectric";
    object      EDextMag;
}
// * * * * * * * * * * * * * * * * * * * * * * * * * * * * * * * * * * * * * //

dimensions      [1 1 -3 0 0 -1 0];

internalField   nonuniform List<vector> 
127636
(
(673.873 -34.3105 0)
(4309.25 1009.57 0)
(16746.2 5455.4 0)
(49165.6 22960.6 0)
(109909 80404.2 0)
(180626 211958 0)
(220694 392146 0)
(220011 537508 0)
(203957 621691 0)
(190530 664823 0)
(181580 688253 0)
(173732 706622 0)
(165156 725138 0)
(155831 743758 0)
(145737 762436 0)
(134861 781124 0)
(123191 799773 0)
(110719 818334 0)
(97441.8 836758 0)
(83359.3 854995 0)
(68475.9 872998 0)
(674.489 -32.1852 0)
(4315.29 1001.33 0)
(16795.7 5385.57 0)
(49509.8 22601.6 0)
(111637 79164.9 0)
(186135 209666 0)
(231642 390963 0)
(235153 539554 0)
(221025 626423 0)
(208310 671111 0)
(199649 695428 0)
(191975 714512 0)
(183531 733768 0)
(174293 753147 0)
(164239 772602 0)
(153355 792080 0)
(141627 811528 0)
(129047 830895 0)
(115612 850125 0)
(101323 869165 0)
(86187.4 887965 0)
(675.099 -33.3715 0)
(4321.24 990.521 0)
(16844.4 5313.71 0)
(49848.5 22237.5 0)
(113349 77888.6 0)
(191653 207195 0)
(242764 389383 0)
(250710 541181 0)
(238677 630828 0)
(226753 677149 0)
(218418 702402 0)
(210943 722242 0)
(202654 742280 0)
(193523 762465 0)
(183525 782745 0)
(172644 803063 0)
(160865 823362 0)
(148180 843584 0)
(134586 863670 0)
(120086 883562 0)
(104688 903204 0)
(675.703 -34.5588 0)
(4327.11 979.697 0)
(16892.3 5241.57 0)
(50181.6 21869.5 0)
(115041 76576.2 0)
(197176 204544 0)
(254052 387391 0)
(266690 542354 0)
(256938 634873 0)
(245893 682906 0)
(237925 709146 0)
(230680 729785 0)
(222571 750652 0)
(213568 771694 0)
(203644 792852 0)
(192779 814064 0)
(180957 835269 0)
(168169 856402 0)
(154413 877398 0)
(139694 898194 0)
(124022 918728 0)
(676.301 -35.7472 0)
(4332.9 968.856 0)
(16939.4 5169.14 0)
(50508.8 21497.7 0)
(116714 75228 0)
(202695 201709 0)
(265500 384966 0)
(283098 543035 0)
(275832 638518 0)
(265765 688347 0)
(258212 715628 0)
(251229 737113 0)
(243330 758861 0)
(234481 780814 0)
(224650 802907 0)
(213815 825073 0)
(201958 847244 0)
(189070 869349 0)
(175148 891315 0)
(160200 913073 0)
(144238 934554 0)
(676.894 -36.9366 0)
(4338.61 957.999 0)
(16985.7 5096.44 0)
(50830.1 21122.1 0)
(118364 73844.4 0)
(208204 198691 0)
(277097 382091 0)
(299942 543185 0)
(295385 641721 0)
(286408 693433 0)
(279324 721812 0)
(272641 744194 0)
(264986 766878 0)
(256317 789800 0)
(246602 812892 0)
(235813 836078 0)
(223931 859281 0)
(210944 882425 0)
(196851 905429 0)
(181661 928212 0)
(165389 950700 0)
(677.48 -38.1271 0)
(4344.24 947.125 0)
(17031 5023.48 0)
(51145.3 20742.8 0)
(119990 72425.8 0)
(213694 195486 0)
(288833 378746 0)
(317224 542759 0)
(315624 644433 0)
(307862 698118 0)
(301309 727658 0)
(294969 750990 0)
(287595 774669 0)
(279141 798627 0)
(269567 822787 0)
(258842 847065 0)
(246944 871377 0)
(233859 895635 0)
(219588 919749 0)
(204139 943629 0)
(187535 967191 0)
(678.062 -39.3186 0)
(4349.79 936.235 0)
(17075.6 4950.25 0)
(51454 20359.9 0)
(121590 70972.6 0)
(219158 192094 0)
(300697 374913 0)
(334947 541709 0)
(336576 646599 0)
(330170 702351 0)
(324218 733118 0)
(318269 757458 0)
(311221 782199 0)
(303019 807264 0)
(293616 832569 0)
(282976 858021 0)
(271073 883524 0)
(257892 908981 0)
(243433 934289 0)
(227707 959347 0)
(210741 984058 0)
(678.637 -40.5111 0)
(4355.25 925.33 0)
(17119.2 4876.76 0)
(51756.3 19973.4 0)
(123163 69485.4 0)
(224586 188514 0)
(312674 370571 0)
(353112 539983 0)
(358267 648157 0)
(353377 706075 0)
(348105 738137 0)
(342606 763550 0)
(335935 789424 0)
(328028 815675 0)
(318831 842211 0)
(308301 868927 0)
(296406 895717 0)
(283130 922468 0)
(268471 949064 0)
(252444 975390 0)
(235080 1001340 0)
(679.207 -41.7047 0)
(4360.63 914.409 0)
(17162 4803.02 0)
(52051.9 19583.5 0)
(124706 67964.6 0)
(229969 184746 0)
(324747 365701 0)
(371715 537525 0)
(380722 649039 0)
(377528 709222 0)
(373031 742655 0)
(368047 769208 0)
(361812 796293 0)
(354252 823818 0)
(345303 851681 0)
(334911 879764 0)
(323041 907947 0)
(309670 936102 0)
(294797 964094 0)
(278441 991792 0)
(260636 1019070 0)
(679.77 -42.8992 0)
(4365.93 903.472 0)
(17203.9 4729.03 0)
(52340.7 19190.2 0)
(126217 66411 0)
(235299 180790 0)
(336900 360284 0)
(390752 534274 0)
(403966 649168 0)
(402675 711717 0)
(399057 746598 0)
(394666 774365 0)
(388938 802747 0)
(381786 831644 0)
(373133 860941 0)
(362915 890508 0)
(351088 920206 0)
(337624 949888 0)
(322522 979400 0)
(305801 1008590 0)
(287505 1037310 0)
(680.328 -44.0947 0)
(4371.15 892.52 0)
(17244.9 4654.8 0)
(52622.5 18793.6 0)
(127696 64825.1 0)
(240564 176646 0)
(349110 354301 0)
(410212 530167 0)
(428023 648455 0)
(428866 713470 0)
(426251 749883 0)
(422543 778942 0)
(417406 808715 0)
(410735 839092 0)
(402437 869946 0)
(392436 901129 0)
(380675 932482 0)
(367122 963835 0)
(351771 995011 0)
(334646 1025830 0)
(315796 1056120 0)
(680.881 -45.2912 0)
(4376.28 881.554 0)
(17285 4580.33 0)
(52897.1 18393.7 0)
(129139 63207.6 0)
(245754 172316 0)
(361354 347736 0)
(430081 525133 0)
(452913 646802 0)
(456154 714380 0)
(454685 752410 0)
(451767 782847 0)
(447319 814114 0)
(441216 846092 0)
(433345 878639 0)
(423614 911589 0)
(411951 944758 0)
(398313 977950 0)
(382693 1010960 0)
(365114 1043570 0)
(345637 1075580 0)
(681.427 -46.4886 0)
(4381.33 870.573 0)
(17324.2 4505.63 0)
(53164.4 17990.7 0)
(130546 61559.4 0)
(250859 167800 0)
(373607 340570 0)
(450338 519099 0)
(478652 644099 0)
(484590 714330 0)
(484435 754066 0)
(482431 785969 0)
(478790 818843 0)
(473362 852557 0)
(466007 886952 0)
(456612 921841 0)
(445086 957014 0)
(431373 992240 0)
(415459 1027270 0)
(397370 1061870 0)
(377177 1095780 0)
(681.968 -47.6871 0)
(4386.29 859.578 0)
(17362.5 4430.71 0)
(53424.3 17584.7 0)
(131913 59881.1 0)
(255868 163101 0)
(385838 332788 0)
(470957 511988 0)
(505250 640221 0)
(514226 713184 0)
(515577 754713 0)
(514638 788179 0)
(511947 822780 0)
(507321 858379 0)
(500593 894799 0)
(491617 931827 0)
(480280 969220 0)
(466507 1006710 0)
(450273 1044010 0)
(431607 1080810 0)
(410591 1116840 0)
(682.503 -48.8864 0)
(4391.17 848.569 0)
(17399.8 4355.57 0)
(53676.5 17175.7 0)
(133241 58173.7 0)
(260768 158220 0)
(398014 324376 0)
(491903 503719 0)
(532709 635029 0)
(545108 710784 0)
(548193 754193 0)
(548495 789318 0)
(546925 825778 0)
(543261 863427 0)
(537296 902070 0)
(528848 941468 0)
(517769 981338 0)
(503959 1021360 0)
(487380 1061200 0)
(468058 1100490 0)
(446090 1138880 0)
(683.032 -50.0867 0)
(4395.96 837.546 0)
(17436.3 4280.22 0)
(53921 16763.9 0)
(134526 56437.9 0)
(265548 153162 0)
(410099 315323 0)
(513131 494209 0)
(561021 628366 0)
(577278 706948 0)
(582362 752316 0)
(584117 789199 0)
(583875 827657 0)
(581368 867538 0)
(576340 908630 0)
(568557 950663 0)
(557828 993310 0)
(544020 1036200 0)
(527070 1078910 0)
(507001 1121010 0)
(483926 1162080 0)
(683.555 -51.288 0)
(4400.67 826.509 0)
(17471.7 4204.65 0)
(54157.6 16349.3 0)
(135767 54674.8 0)
(270196 147929 0)
(422052 305617 0)
(534586 483372 0)
(590165 620061 0)
(610770 701464 0)
(618161 748859 0)
(621621 787594 0)
(622961 828195 0)
(621854 870507 0)
(617980 914303 0)
(611043 959279 0)
(600792 1005060 0)
(587042 1051200 0)
(569700 1097190 0)
(548778 1142510 0)
(524406 1186630 0)
(684.072 -52.4901 0)
(4405.3 815.459 0)
(17506.3 4128.89 0)
(54386.1 15932 0)
(136962 52885.5 0)
(274698 142526 0)
(433830 295254 0)
(556198 471124 0)
(620098 609923 0)
(645598 694089 0)
(655655 743558 0)
(661120 784233 0)
(664350 827122 0)
(664944 872077 0)
(662504 918861 0)
(656650 967137 0)
(647049 1016470 0)
(633447 1066330 0)
(615701 1116120 0)
(593804 1165150 0)
(567903 1212780 0)
(684.584 -53.6931 0)
(4409.83 804.397 0)
(17539.9 4052.93 0)
(54606.5 15512.2 0)
(138109 51070.8 0)
(279043 136958 0)
(445383 284230 0)
(577885 457379 0)
(650757 597744 0)
(681757 684544 0)
(694896 736102 0)
(702726 778786 0)
(708220 824104 0)
(710893 871925 0)
(710245 922012 0)
(705786 973997 0)
(697074 1027390 0)
(683755 1081550 0)
(665611 1135740 0)
(642602 1189120 0)
(614889 1240850 0)
(685.09 -54.8971 0)
(4414.29 793.322 0)
(17572.5 3976.79 0)
(54818.7 15089.9 0)
(139208 49231.9 0)
(283217 131230 0)
(456659 272545 0)
(599546 442058 0)
(682048 583302 0)
(719213 672509 0)
(735913 726124 0)
(746533 770857 0)
(754749 818727 0)
(759972 869639 0)
(761576 923371 0)
(758929 979536 0)
(751438 1037570 0)
(738608 1096740 0)
(720106 1156110 0)
(695830 1214640 0)
(665954 1271230 0)
(685.59 -56.1019 0)
(4418.65 782.234 0)
(17604.2 3900.46 0)
(55022.4 14665.2 0)
(140256 47370 0)
(287208 125348 0)
(467604 260204 0)
(621063 425089 0)
(713841 566358 0)
(757887 657626 0)
(778693 713199 0)
(792604 759974 0)
(804096 810483 0)
(812458 864698 0)
(816911 922435 0)
(816635 983309 0)
(810833 1046700 0)
(798803 1111740 0)
(780040 1177280 0)
(754335 1241980 0)
(721858 1304410 0)
(686.084 -57.3076 0)
(4422.94 771.134 0)
(17634.9 3823.95 0)
(55217.6 14238.3 0)
(141252 45486.1 0)
(291004 119320 0)
(478156 247217 0)
(642296 406407 0)
(745964 546671 0)
(797643 639494 0)
(823167 696833 0)
(840956 745572 0)
(856392 798749 0)
(868629 856438 0)
(876701 918539 0)
(879549 984707 0)
(876096 1054290 0)
(865342 1126270 0)
(846513 1199240 0)
(819219 1271460 0)
(783595 1341020 0)
(686.572 -58.5141 0)
(4427.13 760.023 0)
(17664.6 3747.27 0)
(55404.3 13809.2 0)
(142194 43581.6 0)
(294590 113152 0)
(488254 233599 0)
(663086 385966 0)
(778185 523996 0)
(838270 617680 0)
(869182 676468 0)
(891522 726992 0)
(911699 782765 0)
(928724 844022 0)
(941409 910810 0)
(948398 982889 0)
(948233 1059620 0)
(939485 1139870 0)
(920959 1221900 0)
(891949 1303450 0)
(852488 1381910 0)
(687.054 -59.7215 0)
(4431.24 748.9 0)
(17693.4 3670.42 0)
(55582.2 13378.1 0)
(143082 41657.7 0)
(297956 106853 0)
(497833 219371 0)
(683249 363734 0)
(810220 498103 0)
(879462 591724 0)
(916479 651480 0)
(944125 703466 0)
(969977 761615 0)
(992906 826395 0)
(1011480 898094 0)
(1023990 976684 0)
(1028460 1061650 0)
(1022840 1151780 0)
(1005280 1245000 0)
(974524 1338350 0)
(930357 1428180 0)
(687.53 -60.9297 0)
(4435.26 737.765 0)
(17721.1 3593.42 0)
(55751.3 12945 0)
(143913 39715.5 0)
(301090 100432 0)
(506825 204560 0)
(702582 339707 0)
(841709 468789 0)
(920793 561162 0)
(964644 621201 0)
(998417 674134 0)
(1031010 734220 0)
(1061190 802248 0)
(1087280 878882 0)
(1107150 964474 0)
(1118180 1058810 0)
(1117450 1160790 0)
(1102040 1268000 0)
(1069730 1376570 0)
(1019760 1481320 0)
(688.001 -62.1388 0)
(4439.2 726.62 0)
(17747.9 3516.26 0)
(55911.5 12510.2 0)
(144687 37756.5 0)
(303979 93897.3 0)
(515163 189199 0)
(720861 313908 0)
(872220 435897 0)
(961699 525553 0)
(1013070 584946 0)
(1053820 638065 0)
(1094320 699342 0)
(1133310 769995 0)
(1168940 851228 0)
(1198640 944021 0)
(1219000 1048790 0)
(1225870 1164850 0)
(1214720 1289700 0)
(1181570 1418390 0)
(1124470 1543410 0)
(688.465 -63.3487 0)
(4443.04 715.463 0)
(17773.7 3438.96 0)
(56062.7 12073.5 0)
(145402 35782.1 0)
(306615 87259.9 0)
(522782 173329 0)
(737846 286394 0)
(901247 399345 0)
(1001450 484529 0)
(1060930 542068 0)
(1109450 594310 0)
(1159060 655632 0)
(1208600 727776 0)
(1256190 812680 0)
(1298910 912284 0)
(1332520 1028140 0)
(1351270 1160640 0)
(1348120 1307790 0)
(1315980 1463670 0)
(1250230 1617370 0)
(688.924 -64.5594 0)
(4446.81 704.297 0)
(17798.5 3361.52 0)
(56204.9 11635.3 0)
(146058 33793.5 0)
(308986 80530 0)
(529615 156995 0)
(753288 257259 0)
(928217 359145 0)
(1039170 437845 0)
(1107110 492036 0)
(1164040 542001 0)
(1223860 601727 0)
(1285740 673537 0)
(1348030 760277 0)
(1407770 865234 0)
(1460060 991813 0)
(1497290 1142640 0)
(1508830 1317660 0)
(1482040 1511010 0)
(1406380 1707290 0)
(689.377 -65.7709 0)
(4450.48 693.12 0)
(17822.3 3283.94 0)
(56338 11195.6 0)
(146654 31792.3 0)
(311085 73718.8 0)
(535604 140252 0)
(766935 226639 0)
(952504 315431 0)
(1073810 385455 0)
(1150240 434548 0)
(1215910 480499 0)
(1286730 536438 0)
(1362490 605235 0)
(1442250 690707 0)
(1523650 797812 0)
(1601770 932653 0)
(1667520 1101840 0)
(1705650 1310240 0)
(1694150 1555590 0)
(1609170 1818630 0)
(689.824 -66.9832 0)
(4454.07 681.933 0)
(17845.1 3206.24 0)
(56461.9 10754.6 0)
(147189 29779.8 0)
(312903 66837.6 0)
(540692 123157 0)
(778546 194713 0)
(973463 268486 0)
(1104210 327581 0)
(1188690 369660 0)
(1262930 409587 0)
(1344930 459039 0)
(1435470 521223 0)
(1534940 600754 0)
(1642610 704258 0)
(1755150 841143 0)
(1863770 1024110 0)
(1949230 1268030 0)
(1975470 1583500 0)
(1889460 1956680 0)
(690.265 -68.1963 0)
(4457.56 670.736 0)
(17866.8 3128.41 0)
(56576.6 10312.2 0)
(147662 27757.5 0)
(314434 59898.4 0)
(544833 105774 0)
(787900 161697 0)
(990464 218746 0)
(1129180 264779 0)
(1220680 297919 0)
(1302660 329704 0)
(1395080 369644 0)
(1500030 420872 0)
(1619910 488211 0)
(1756980 579256 0)
(1912220 706233 0)
(2081850 888944 0)
(2248590 1158410 0)
(2362530 1557070 0)
(2312450 2115200 0)
(690.7 -69.4102 0)
(4460.97 659.53 0)
(17887.6 3050.47 0)
(56682.1 9868.71 0)
(148073 25726.8 0)
(315674 52913.4 0)
(547989 88173.1 0)
(794813 127846 0)
(1002950 166805 0)
(1147610 197971 0)
(1244500 220460 0)
(1332550 242139 0)
(1433410 269614 0)
(1550550 305344 0)
(1688670 353331 0)
(1854230 420397 0)
(2055730 518828 0)
(2302650 672057 0)
(2597700 927089 0)
(2904110 1380410 0)
(3033580 2214800 0)
(691.129 -69.0027 0)
(4464.3 649.568 0)
(17907.4 2973.28 0)
(56778.2 9424.74 0)
(148422 23689.6 0)
(316618 45895.1 0)
(550133 70425.5 0)
(799148 93446.4 0)
(1010490 113393 0)
(1158610 128425 0)
(1258660 139018 0)
(1350370 149113 0)
(1456420 161808 0)
(1581290 178269 0)
(1731580 200475 0)
(1917610 231987 0)
(2156480 279807 0)
(2478100 359267 0)
(2936100 508978 0)
(3612360 844756 0)
(4473200 1789280 0)
(52646.7 890885 0)
(35866.8 908604 0)
(18288.4 925947 0)
(-71.5654 942877 0)
(-19196.5 959362 0)
(-39069.3 975377 0)
(-59670.6 990896 0)
(-80981.7 1005900 0)
(-102988 1020380 0)
(-125675 1034330 0)
(-149032 1047730 0)
(-173050 1060600 0)
(-197725 1072930 0)
(-223058 1084720 0)
(-249054 1095980 0)
(-275721 1106720 0)
(-303074 1116950 0)
(-331137 1126670 0)
(-359933 1135900 0)
(-389493 1144640 0)
(-419858 1152900 0)
(-451073 1160680 0)
(-483189 1167990 0)
(-516263 1174820 0)
(-550364 1181190 0)
(-585569 1187080 0)
(-621961 1192490 0)
(-659635 1197420 0)
(-698702 1201860 0)
(-739280 1205810 0)
(-781492 1209270 0)
(-824204 1212310 0)
(-1051310 1202480 0)
(-907659 1204160 0)
(-957558 1205070 0)
(-1010120 1205340 0)
(-1065690 1205010 0)
(-1124670 1204100 0)
(-1187550 1202620 0)
(-1254960 1200620 0)
(-1327670 1198190 0)
(-1406690 1195440 0)
(-1493280 1192620 0)
(-1763730 1177840 0)
(-1682080 1174410 0)
(-1802730 1171390 0)
(-1942570 1169930 0)
(-2108520 1171480 0)
(-2311520 1178690 0)
(-2570050 1196760 0)
(-2918130 1237340 0)
(-3426420 1331260 0)
(-4268910 1585270 0)
(-5961660 2578850 0)
(70058.6 906646 0)
(52934.5 925151 0)
(34973.8 943265 0)
(16197.8 960948 0)
(-3372.14 978167 0)
(-23714 994894 0)
(-44803.4 1011110 0)
(-66616.7 1026790 0)
(-89134.3 1041930 0)
(-112339 1056520 0)
(-136215 1070560 0)
(-160749 1084050 0)
(-185935 1096990 0)
(-211773 1109410 0)
(-238265 1121300 0)
(-265417 1132690 0)
(-293246 1143570 0)
(-321773 1153980 0)
(-351024 1163910 0)
(-381029 1173390 0)
(-411830 1182430 0)
(-443475 1191040 0)
(-476014 1199230 0)
(-509508 1207010 0)
(-544025 1214390 0)
(-579645 1221370 0)
(-616451 1227950 0)
(-654539 1234150 0)
(-694019 1239970 0)
(-735007 1245420 0)
(-777631 1250500 0)
(-820855 1255220 0)
(-1055600 1247230 0)
(-905424 1250790 0)
(-955797 1254060 0)
(-1008790 1257010 0)
(-1064740 1259710 0)
(-1124050 1262230 0)
(-1187170 1264700 0)
(-1254690 1267290 0)
(-1327330 1270240 0)
(-1405990 1273910 0)
(-1491820 1278790 0)
(-1777040 1273010 0)
(-1678800 1280960 -1.59777e-15)
(-1796760 1293170 1.51835e-15)
(-1931610 1311760 0)
(-2089130 1340690 1.34146e-15)
(-2277220 1386690 0)
(-2508260 1462650 0)
(-2800060 1594470 0)
(-3175850 1840770 0)
(-3637790 2346370 0)
(-3962160 3441630 0)
(88246.3 922722 0)
(70761.9 942055 0)
(52400.4 960975 0)
(33188.1 979441 0)
(13152.2 997418 0)
(-7679.85 1014880 0)
(-29277.7 1031800 0)
(-51612.1 1048170 0)
(-74658.1 1063970 0)
(-98393.7 1079200 0)
(-122798 1093880 0)
(-147855 1107990 0)
(-173555 1121550 0)
(-199894 1134580 0)
(-226874 1147090 0)
(-254499 1159100 0)
(-282785 1170630 0)
(-311753 1181700 0)
(-341429 1192340 0)
(-371843 1202550 0)
(-403039 1212360 0)
(-435064 1221790 0)
(-467972 1230850 0)
(-501822 1239570 0)
(-536686 1247950 0)
(-572642 1256010 0)
(-609776 1263770 0)
(-648180 1271230 0)
(-687965 1278430 0)
(-729247 1285360 0)
(-772152 1292070 0)
(-815648 1298560 0)
(-1057950 1292060 0)
(-901089 1297740 0)
(-951654 1303350 0)
(-1004780 1308920 0)
(-1060760 1314560 0)
(-1119970 1320410 0)
(-1182810 1326680 0)
(-1249800 1333640 0)
(-1321540 1341670 0)
(-1398800 1351310 0)
(-1482540 1363290 0)
(-1780340 1365480 0)
(-1663860 1383960 0)
(-1775110 1409220 0)
(-1900090 1444480 0)
(-2042060 1494960 0)
(-2204860 1569170 0)
(-2392290 1681610 0)
(-2605040 1857700 0)
(-2829930 2141710 0)
(-3006630 2600120 0)
(-2958780 3265920 0)
(107251 939130 0)
(89386 959332 0)
(70600.3 979096 0)
(50926.6 998377 0)
(30398.3 1017140 0)
(9049.78 1035350 0)
(-13082 1053000 0)
(-35961.3 1070060 0)
(-59556.9 1086530 0)
(-83841.1 1102410 0)
(-108788 1117700 0)
(-134377 1132420 0)
(-160594 1146590 0)
(-187435 1160220 0)
(-214896 1173330 0)
(-242982 1185950 0)
(-271706 1198110 0)
(-301090 1209830 0)
(-331160 1221140 0)
(-361948 1232070 0)
(-393495 1242630 0)
(-425852 1252870 0)
(-459072 1262790 0)
(-493217 1272430 0)
(-528356 1281800 0)
(-564571 1290930 0)
(-601945 1299850 0)
(-640569 1308560 0)
(-680553 1317110 0)
(-722009 1325520 0)
(-765060 1333830 0)
(-808664 1342070 0)
(-1058390 1337030 0)
(-894655 1344790 0)
(-945184 1352670 0)
(-998166 1360770 0)
(-1053870 1369220 0)
(-1112600 1378220 0)
(-1174710 1388040 0)
(-1240610 1399030 0)
(-1310770 1411660 0)
(-1385780 1426610 0)
(-1466320 1444760 0)
(-1774660 1453870 0)
(-1638700 1480970 0)
(-1741220 1516460 0)
(-1853400 1563870 0)
(-1976240 1628490 0)
(-2109660 1718280 1.3801e-15)
(-2252080 1845340 -1.28104e-15)
(-2393620 2026700 0)
(-2511830 2284130 0)
(-2556080 2632060 0)
(-2445450 3040410 8.36656e-16)
(127117 955890 0)
(108846 977007 0)
(89607.5 997655 0)
(69441.2 1017780 0)
(48388.2 1037360 0)
(26490.7 1056340 0)
(3793.42 1074720 0)
(-19660.1 1092480 0)
(-43831.5 1109620 0)
(-68686.8 1126140 0)
(-94194 1142050 0)
(-120327 1157370 0)
(-147070 1172110 0)
(-174412 1186320 0)
(-202349 1200010 0)
(-230884 1213220 0)
(-260029 1225990 0)
(-289806 1238330 0)
(-320239 1250300 0)
(-351362 1261910 0)
(-383217 1273210 0)
(-415856 1284230 0)
(-449332 1294990 0)
(-483707 1305530 0)
(-519053 1315870 0)
(-555448 1326050 0)
(-592976 1336100 0)
(-631727 1346040 0)
(-671805 1355920 0)
(-713319 1365770 0)
(-756386 1375640 0)
(-799954 1385580 0)
(-1056980 1381980 0)
(-886188 1391740 0)
(-936477 1401810 0)
(-989084 1412300 0)
(-1044230 1423390 0)
(-1102180 1435310 0)
(-1163180 1448360 0)
(-1227540 1462940 0)
(-1295610 1479590 0)
(-1367750 1499030 0)
(-1444360 1522230 0)
(-1761760 1536980 0)
(-1605830 1570530 0)
(-1698530 1613100 0)
(-1796950 1667960 0)
(-1900340 1739680 0)
(-2006430 1834460 0)
(-2109900 1960310 0)
(-2199770 2126280 0)
(-2255900 2339130 0)
(-2247160 2594320 0)
(-2140100 2861860 0)
(147893 973026 0)
(129185 995110 0)
(109458 1016680 0)
(88761.2 1037700 0)
(67143.9 1058110 0)
(44657.8 1077890 0)
(21356.8 1097010 0)
(-2706.81 1115480 0)
(-27486.4 1133280 0)
(-52940.3 1150420 0)
(-79030.2 1166930 0)
(-105724 1182830 0)
(-133002 1198130 0)
(-160849 1212890 0)
(-189259 1227140 0)
(-218232 1240900 0)
(-247780 1254240 0)
(-277924 1267180 0)
(-308690 1279770 0)
(-340111 1292040 0)
(-372230 1304050 0)
(-405100 1315820 0)
(-438774 1327390 0)
(-473316 1338800 0)
(-508797 1350090 0)
(-545296 1361290 0)
(-582894 1372450 0)
(-621680 1383590 0)
(-661754 1394760 0)
(-703218 1406010 0)
(-746181 1417390 0)
(-789587 1428970 0)
(-1053760 1426770 0)
(-875777 1438440 0)
(-925655 1450570 0)
(-977691 1463300 0)
(-1032070 1476820 0)
(-1088970 1491380 0)
(-1148590 1507290 0)
(-1211120 1524990 0)
(-1276750 1545010 0)
(-1345660 1568080 0)
(-1417980 1595150 0)
(-1742860 1614190 0)
(-1567720 1652060 0)
(-1650560 1698750 0)
(-1735790 1756970 0)
(-1821600 1830190 0)
(-1904650 1922610 0)
(-1979220 2038720 -1.45259e-15)
(-2034890 2181950 0)
(-2058030 2352110 0)
(-2031040 2540480 0)
(-1940040 2725740 0)
(169631 990569 0)
(150448 1013670 0)
(130191 1036220 0)
(108917 1058160 0)
(86687.6 1079430 0)
(63564.9 1100020 0)
(39613.7 1119910 0)
(14896.6 1139070 0)
(-10530.1 1157530 0)
(-36616.5 1175290 0)
(-63316.4 1192370 0)
(-90592.1 1208820 0)
(-118417 1224650 0)
(-146775 1239930 0)
(-175655 1254690 0)
(-205057 1268980 0)
(-234991 1282850 0)
(-265479 1296350 0)
(-296545 1309520 0)
(-328225 1322420 0)
(-360563 1335090 0)
(-393612 1347580 0)
(-427427 1359930 0)
(-462072 1372190 0)
(-497619 1384390 0)
(-534146 1396580 0)
(-571732 1408800 0)
(-610465 1421100 0)
(-650440 1433520 0)
(-691753 1446120 0)
(-734505 1458960 0)
(-777636 1472100 0)
(-1048810 1471260 0)
(-863534 1484730 0)
(-912857 1498800 0)
(-964168 1513590 0)
(-1017610 1529320 0)
(-1073310 1546220 0)
(-1131370 1564620 0)
(-1191880 1584940 0)
(-1254910 1607680 0)
(-1320460 1633540 0)
(-1388430 1663370 0)
(-1720060 1685390 0)
(-1526600 1725680 0)
(-1600320 1774010 0)
(-1673880 1832440 0)
(-1745050 1903330 0)
(-1810270 1989170 0)
(-1864180 2091910 0)
(-1899250 2212040 0)
(-1906050 2346730 0)
(-1875110 2487830 0)
(-1800650 2621160 0)
(192392 1008560 0)
(172687 1032740 0)
(151847 1056320 0)
(129941 1079210 0)
(107041 1101380 0)
(83224.4 1122800 0)
(58567.2 1143450 0)
(33144.7 1163310 0)
(7023.81 1182410 0)
(-19735.4 1200760 0)
(-47078.5 1218400 0)
(-74960.8 1235360 0)
(-103351 1251690 0)
(-132227 1267440 0)
(-161577 1282670 0)
(-191398 1297440 0)
(-221701 1311800 0)
(-252507 1325810 0)
(-283842 1339530 0)
(-315742 1353010 0)
(-348252 1366310 0)
(-381428 1379480 0)
(-415326 1392570 0)
(-450010 1405630 0)
(-485553 1418700 0)
(-522032 1431840 0)
(-559528 1445090 0)
(-598124 1458500 0)
(-637911 1472130 0)
(-678981 1486020 0)
(-721424 1500250 0)
(-764183 1514880 0)
(-1042190 1515350 0)
(-849575 1530510 0)
(-898232 1546360 0)
(-948708 1563040 0)
(-1001110 1580750 0)
(-1055490 1599710 0)
(-1111910 1620230 0)
(-1170350 1642690 0)
(-1230770 1667560 0)
(-1293030 1695420 0)
(-1356870 1727020 0)
(-1694180 1750860 0)
(-1484530 1792080 0)
(-1550300 1840190 0)
(-1613960 1896620 0)
(-1673630 1962880 0)
(-1725840 2040140 0)
(-1766190 2128900 0)
(-1789440 2228230 -1.55443e-15)
(-1788570 2334590 0)
(-1759860 2441690 0)
(-1700250 2539990 1.31334e-15)
(216239 1027030 0)
(195958 1052370 0)
(174472 1077020 0)
(151866 1100920 0)
(128227 1124020 0)
(103647 1146280 0)
(78217 1167690 0)
(52026.8 1188250 0)
(25156.1 1207970 0)
(-2324.04 1226890 0)
(-30349.7 1245030 0)
(-58868.6 1262470 0)
(-87843.2 1279240 0)
(-117249 1295420 0)
(-147070 1311070 0)
(-177302 1326260 0)
(-207957 1341060 0)
(-239055 1355530 0)
(-270625 1369740 0)
(-302703 1383760 0)
(-335339 1397640 0)
(-368588 1411440 0)
(-402509 1425230 0)
(-437167 1439050 0)
(-472637 1452950 0)
(-508997 1467000 0)
(-546324 1481240 0)
(-584702 1495710 0)
(-624218 1510490 0)
(-664958 1525620 0)
(-707006 1541170 0)
(-749308 1557210 0)
(-1034000 1558940 0)
(-834021 1575680 0)
(-881930 1593180 0)
(-931498 1611580 0)
(-982792 1631040 0)
(-1035840 1651790 0)
(-1090600 1674090 0)
(-1147020 1698270 0)
(-1204960 1724720 0)
(-1264160 1753930 0)
(-1324250 1786490 0)
(-1667500 1811270 0)
(-1442310 1852150 0)
(-1501520 1898720 0)
(-1557740 1951860 0)
(-1608840 2012330 0)
(-1652030 2080490 0)
(-1683870 2156020 0)
(-1700460 2237400 0)
(-1697940 2321500 0)
(-1673400 2403370 0)
(-1625940 2476610 0)
(241248 1046050 0)
(220323 1072620 0)
(198116 1098410 0)
(174729 1123360 0)
(150267 1147420 0)
(124840 1170540 0)
(98558.5 1192720 0)
(71527 1213950 0)
(43840.5 1234260 0)
(15582.8 1253710 0)
(-13171.8 1272320 0)
(-42362.4 1290180 0)
(-71945.9 1307340 0)
(-101894 1323890 0)
(-132187 1339900 0)
(-162823 1355450 0)
(-193811 1370620 0)
(-225175 1385490 0)
(-256944 1400140 0)
(-289159 1414630 0)
(-321870 1429040 0)
(-355137 1443430 0)
(-389021 1457860 0)
(-423588 1472390 0)
(-458915 1487080 0)
(-495082 1501980 0)
(-532165 1517160 0)
(-570247 1532650 0)
(-609414 1548530 0)
(-649746 1564840 0)
(-691322 1581640 0)
(-733097 1599010 0)
(-1024250 1601960 0)
(-816985 1620160 0)
(-864091 1639190 0)
(-912712 1659140 0)
(-962888 1680180 0)
(-1014600 1702480 0)
(-1067780 1726260 0)
(-1122310 1751790 0)
(-1177970 1779390 0)
(-1234450 1809420 0)
(-1291310 1842320 0)
(-1640090 1867280 0)
(-1401500 1907070 0)
(-1455560 1951300 0)
(-1506060 2000420 0)
(-1551120 2054700 0)
(-1588450 2114000 0)
(-1615400 2177600 0)
(-1629200 2243890 0)
(-1627340 2310200 0)
(-1608140 2372820 0)
(-1571320 2427340 0)
(267502 1065680 0)
(245852 1093560 0)
(222833 1120570 0)
(198567 1146620 0)
(173183 1171660 0)
(146811 1195660 0)
(119582 1218590 0)
(91621.9 1240480 0)
(63042.1 1261360 0)
(33940.7 1281270 0)
(4403.66 1300300 0)
(-25499.5 1318510 0)
(-55719.5 1335990 0)
(-86224 1352840 0)
(-116993 1369130 0)
(-148023 1384970 0)
(-179325 1400450 0)
(-210926 1415660 0)
(-242858 1430680 0)
(-275164 1445580 0)
(-307899 1460460 0)
(-341126 1475370 0)
(-374909 1490390 0)
(-409319 1505590 0)
(-444434 1521010 0)
(-480334 1536730 0)
(-517099 1552790 0)
(-554809 1569250 0)
(-593551 1586170 0)
(-633402 1603600 0)
(-674437 1621600 0)
(-715621 1640240 0)
(-1013200 1644340 0)
(-798576 1663920 0)
(-844847 1684350 0)
(-892511 1705730 0)
(-941587 1728170 0)
(-992032 1751820 0)
(-1043740 1776840 0)
(-1096550 1803440 0)
(-1150220 1831840 0)
(-1204400 1862300 0)
(-1258590 1895110 0)
(-1612970 1919750 0)
(-1362540 1957960 0)
(-1412780 1999410 0)
(-1459270 2044250 0)
(-1500390 2092410 0)
(-1534280 2143490 0)
(-1558910 2196580 0)
(-1572270 2250200 0)
(-1572690 2302120 0)
(-1559140 2349630 0)
(-1531580 2389570 0)
(295097 1086000 0)
(272624 1115290 0)
(248683 1143590 0)
(223421 1170800 0)
(196994 1196860 0)
(169558 1221730 0)
(141271 1245420 0)
(112280 1267930 0)
(82716 1289320 0)
(52694.2 1309650 0)
(22313 1329020 0)
(-8348.85 1347510 0)
(-39236.3 1365230 0)
(-70313.9 1382280 0)
(-101561 1398780 0)
(-132975 1414830 0)
(-164570 1430540 0)
(-196376 1446000 0)
(-228430 1461310 0)
(-260779 1476560 0)
(-293484 1491840 0)
(-326610 1507220 0)
(-360228 1522770 0)
(-394410 1538570 0)
(-429240 1554680 0)
(-464800 1571150 0)
(-501171 1588050 0)
(-538436 1605430 0)
(-576681 1623350 0)
(-615982 1641850 0)
(-656412 1660990 0)
(-696951 1680820 0)
(-1000680 1686050 0)
(-778880 1706920 0)
(-824300 1728660 0)
(-871017 1751350 0)
(-919037 1775070 0)
(-968301 1799910 0)
(-1018680 1826000 0)
(-1070010 1853470 0)
(-1122000 1882440 0)
(-1174300 1913070 0)
(-1226410 1945500 0)
(-1586630 1969500 0)
(-1325720 2005880 0)
(-1373360 2044410 0)
(-1417310 2085020 0)
(-1456210 2127420 0)
(-1488520 2171060 0)
(-1512670 2215010 0)
(-1527180 2257930 0)
(-1530860 2298070 0)
(-1523030 2333320 0)
(-1503690 2361460 0)
(324144 1107100 0)
(300729 1137910 0)
(275733 1167590 0)
(249334 1196020 0)
(221720 1223140 0)
(193080 1248890 0)
(163600 1273300 0)
(133457 1296390 0)
(102804 1318230 0)
(71774 1338910 0)
(40478.8 1358530 0)
(9006.65 1377210 0)
(-22582 1395070 0)
(-54249.7 1412240 0)
(-85976.6 1428840 0)
(-117762 1445000 0)
(-149625 1460840 0)
(-181601 1476470 0)
(-213732 1492000 0)
(-246072 1507520 0)
(-278686 1523130 0)
(-311648 1538910 0)
(-345031 1554930 0)
(-378915 1571280 0)
(-413385 1588010 0)
(-448529 1605200 0)
(-484431 1622880 0)
(-521176 1641130 0)
(-558851 1659990 0)
(-597534 1679520 0)
(-637298 1699740 0)
(-677143 1720720 0)
(-986994 1727030 0)
(-757977 1749130 0)
(-802541 1772120 0)
(-848334 1796040 0)
(-895358 1820940 0)
(-943547 1846880 0)
(-992770 1873920 0)
(-1042840 1902110 0)
(-1093490 1931520 0)
(-1144360 1962180 0)
(-1194980 1994130 0)
(-1561340 2017280 0)
(-1291150 2051810 0)
(-1337270 2087500 0)
(-1379940 2124120 0)
(-1417990 2161260 0)
(-1450180 2198280 0)
(-1475230 2234310 0)
(-1492000 2268130 0)
(-1499590 2298420 0)
(-1497470 2323500 0)
(-1485630 2341800 0)
(354771 1129100 0)
(330271 1161570 0)
(304058 1192730 0)
(276351 1222450 0)
(247376 1250640 0)
(217363 1277280 0)
(186534 1302380 0)
(155098 1326000 0)
(123234 1348210 0)
(91094.5 1369130 0)
(58806.9 1388900 0)
(26467.9 1407650 0)
(-5857.57 1425530 0)
(-38131.7 1442700 0)
(-70337.3 1459300 0)
(-102478 1475460 0)
(-134581 1491340 0)
(-166685 1507040 0)
(-198843 1522690 0)
(-231116 1538400 0)
(-263575 1554260 0)
(-296302 1570370 0)
(-329378 1586800 0)
(-362886 1603630 0)
(-396919 1620940 0)
(-431569 1638780 0)
(-466924 1657210 0)
(-503073 1676280 0)
(-540106 1696040 0)
(-578104 1716540 0)
(-617142 1737820 0)
(-656243 1759900 0)
(-971934 1767270 0)
(-735916 1790550 0)
(-779624 1814740 0)
(-824522 1839840 0)
(-870616 1865870 0)
(-917843 1892850 0)
(-966076 1920780 0)
(-1015140 1949660 0)
(-1064770 1979460 0)
(-1114640 2010140 0)
(-1164300 2041600 0)
(-1537220 2063920 0)
(-1258740 2096670 0)
(-1304280 2129720 0)
(-1346740 2162720 0)
(-1385100 2195160 0)
(-1418320 2226380 0)
(-1445340 2255540 0)
(-1465220 2281620 0)
(-1477200 2303460 0)
(-1480810 2319860 0)
(-1475970 2329630 0)
(387128 1152140 0)
(361368 1186430 0)
(333742 1219180 0)
(304518 1250250 0)
(273974 1279560 0)
(242386 1307070 0)
(210022 1332810 0)
(177127 1356870 0)
(143911 1379350 0)
(110550 1400410 0)
(77183.1 1420190 0)
(43917.1 1438880 0)
(10818.7 1456650 0)
(-22076.1 1473680 0)
(-54755 1490140 0)
(-87229.7 1506190 0)
(-119535 1521980 0)
(-151721 1537660 0)
(-183849 1553340 0)
(-215989 1569140 0)
(-248223 1585170 0)
(-280641 1601530 0)
(-313329 1618300 0)
(-346382 1635560 0)
(-379896 1653380 0)
(-413969 1671820 0)