/*--------------------------------*- C++ -*----------------------------------*\
  =========                 |
  \\      /  F ield         | OpenFOAM: The Open Source CFD Toolbox
   \\    /   O peration     | Website:  https://openfoam.org
    \\  /    A nd           | Version:  7
     \\/     M anipulation  |
\*---------------------------------------------------------------------------*/
FoamFile
{
    version     2.0;
    format      ascii;
    class       volVectorField;
    location    "0/dielectric";
    object      EDrho;
}
// * * * * * * * * * * * * * * * * * * * * * * * * * * * * * * * * * * * * * //

dimensions      [1 1 -3 0 0 -1 0];

internalField   nonuniform List<vector> 
127636
(
(-0.0378532 17.1579 0)
(3.38065 55.4047 0)
(-3.12175 176.287 0)
(-99.6426 461.62 0)
(-427.728 857.339 0)
(-970.611 973.642 0)
(-1432.68 610.937 0)
(-1627.47 170.86 0)
(-1657.82 -103.548 0)
(-1646.45 -245.277 0)
(-1631.84 -322.008 0)
(-1616.15 -381.87 0)
(-1596.95 -441.779 0)
(-1574.1 -501.434 0)
(-1547.5 -560.516 0)
(-1517.07 -618.685 0)
(-1482.74 -675.591 0)
(-1444.46 -730.87 0)
(-1402.24 -784.143 0)
(-1356.07 -835.028 0)
(-1305.98 -883.141 0)
(-0.0151966 17.2634 0)
(3.55171 55.4801 0)
(-2.24657 176.426 0)
(-96.8162 463.006 0)
(-424.294 865.189 0)
(-977.438 994.153 0)
(-1461.7 634.109 0)
(-1675.46 181.557 0)
(-1714.07 -105.16 0)
(-1705.25 -254.319 0)
(-1691.38 -335.346 0)
(-1675.94 -398.697 0)
(-1656.69 -462.232 0)
(-1633.49 -525.635 0)
(-1606.21 -588.568 0)
(-1574.75 -650.667 0)
(-1539.03 -711.559 0)
(-1499.01 -770.857 0)
(-1454.64 -828.156 0)
(-1405.95 -883.049 0)
(-1352.96 -935.125 0)
(0.00745215 17.2634 0)
(3.72286 55.4669 0)
(-1.3681 176.494 0)
(-93.9525 464.325 0)
(-420.684 873.031 0)
(-984.051 1015.28 0)
(-1491.23 659.067 0)
(-1725.26 194.132 0)
(-1773.09 -105.51 0)
(-1767.25 -262.601 0)
(-1754.35 -348.245 0)
(-1739.31 -415.357 0)
(-1720.15 -482.816 0)
(-1696.72 -550.287 0)
(-1668.86 -617.409 0)
(-1636.45 -683.793 0)
(-1599.39 -749.04 0)
(-1557.63 -812.735 0)
(-1511.13 -874.443 0)
(-1459.89 -933.729 0)
(-1403.94 -990.154 0)
(0.030093 17.2634 0)
(3.8941 55.4531 0)
(-0.48637 176.558 0)
(-91.0511 465.621 0)
(-416.892 880.893 0)
(-990.415 1037.05 0)
(-1521.23 685.923 0)
(-1776.91 208.792 0)
(-1835.02 -104.384 0)
(-1832.7 -269.928 0)
(-1821.02 -360.526 0)
(-1806.55 -431.689 0)
(-1787.65 -503.388 0)
(-1764.12 -575.267 0)
(-1735.79 -646.939 0)
(-1702.52 -717.989 0)
(-1664.19 -787.986 0)
(-1620.72 -856.482 0)
(-1572.08 -923.011 0)
(-1518.26 -987.102 0)
(-1459.3 -1048.29 0)
(0.0527255 17.2633 0)
(4.06542 55.439 0)
(0.398561 176.618 0)
(-88.112 466.895 0)
(-412.909 888.77 0)
(-996.495 1059.46 0)
(-1551.67 714.77 0)
(-1830.46 225.752 0)
(-1900.04 -101.555 0)
(-1901.83 -276.09 0)
(-1891.65 -371.995 0)
(-1877.96 -447.515 0)
(-1859.51 -523.79 0)
(-1836.05 -600.44 0)
(-1807.38 -677.052 0)
(-1773.35 -753.176 0)
(-1733.81 -828.348 0)
(-1688.68 -902.082 0)
(-1637.91 -973.873 0)
(-1581.48 -1043.21 0)
(-1519.44 -1109.59 0)
(0.0753496 17.2632 0)
(4.23682 55.4243 0)
(1.28664 176.673 0)
(-85.135 468.146 0)
(-408.731 896.658 0)
(-1002.25 1082.52 0)
(-1582.49 745.707 0)
(-1885.95 245.242 0)
(-1968.31 -96.7644 0)
(-1974.88 -280.846 0)
(-1966.54 -382.428 0)
(-1953.88 -462.628 0)
(-1936.07 -543.837 0)
(-1912.87 -625.65 0)
(-1884.04 -707.619 0)
(-1849.37 -789.26 0)
(-1808.71 -870.067 0)
(-1761.96 -949.512 0)
(-1709.06 -1027.04 0)
(-1649.99 -1102.11 0)
(-1584.8 -1174.16 0)
(0.0979649 17.263 0)
(4.4083 55.4092 0)
(2.17782 176.724 0)
(-82.1199 469.373 0)
(-404.348 904.554 0)
(-1007.65 1106.22 0)
(-1613.64 778.832 0)
(-1943.42 267.518 0)
(-2040 -89.7203 0)
(-2052.11 -283.918 0)
(-2046 -391.566 0)
(-2034.62 -476.789 0)
(-2017.73 -563.316 0)
(-1995.01 -650.711 0)
(-1966.18 -738.491 0)
(-1931.03 -826.129 0)
(-1889.36 -913.073 0)
(-1841.04 -998.744 0)
(-1786.01 -1082.54 0)
(-1724.27 -1163.85 0)
(-1655.84 -1242.08 0)
(0.120571 17.2629 0)
(4.57985 55.3936 0)
(3.07205 176.771 0)
(-79.0667 470.576 0)
(-399.754 912.453 0)
(-1012.63 1130.56 0)
(-1645.06 814.244 0)
(-2002.88 292.858 0)
(-2115.27 -80.0946 0)
(-2133.78 -284.99 0)
(-2130.33 -399.112 0)
(-2120.57 -489.723 0)
(-2104.88 -581.978 0)
(-2082.89 -675.408 0)
(-2054.3 -769.491 0)
(-2018.82 -863.651 0)
(-1976.25 -957.281 0)
(-1926.44 -1049.74 0)
(-1869.3 -1140.37 0)
(-1804.83 -1228.49 0)
(-1733.08 -1313.45 0)
(0.143168 17.2626 0)
(4.75146 55.3776 0)
(3.96926 176.812 0)
(-75.9753 471.755 0)
(-394.943 920.351 0)
(-1017.17 1155.54 0)
(-1676.65 852.043 0)
(-2064.33 321.563 0)
(-2194.28 -67.5167 0)
(-2220.17 -283.7 0)
(-2219.89 -404.722 0)
(-2212.11 -501.107 0)
(-2197.95 -599.531 0)
(-2177 -699.49 0)
(-2148.89 -800.415 0)
(-2113.3 -901.673 0)
(-2069.98 -1002.59 0)
(-2018.74 -1102.47 0)
(-1959.51 -1200.56 0)
(-1892.25 -1296.12 0)
(-1817.06 -1388.41 0)
(0.165756 17.2623 0)
(4.92314 55.3611 0)
(4.8694 176.85 0)
(-72.8456 472.908 0)
(-389.906 928.242 0)
(-1021.21 1181.15 0)
(-1708.33 892.329 0)
(-2127.75 353.958 0)
(-2277.2 -51.5705 0)
(-2311.56 -279.634 0)
(-2315.03 -408.001 0)
(-2309.65 -510.571 0)
(-2297.42 -615.639 0)
(-2277.87 -722.663 0)
(-2250.54 -831.02 0)
(-2215.06 -940.013 0)
(-2171.15 -1048.9 0)
(-2118.58 -1156.88 0)
(-2057.26 -1263.14 0)
(-1987.16 -1366.82 0)
(-1908.38 -1467.12 0)
(0.188334 17.262 0)
(5.09486 55.3442 0)
(5.77242 176.882 0)
(-69.6775 474.036 0)
(-384.637 936.121 0)
(-1024.69 1207.38 0)
(-1740 935.199 0)
(-2193.12 390.395 0)
(-2364.16 -31.7865 0)
(-2408.24 -272.316 0)
(-2416.12 -408.491 0)
(-2413.64 -517.682 0)
(-2403.8 -629.906 0)
(-2386.05 -744.578 0)
(-2359.85 -861.019 0)
(-2324.78 -978.455 0)
(-2280.47 -1096.05 0)
(-2226.68 -1212.93 0)
(-2163.27 -1328.13 0)
(-2090.24 -1440.72 0)
(-2007.7 -1549.77 0)
(0.210902 17.2617 0)
(5.26663 55.3268 0)
(6.67825 176.911 0)
(-66.4712 475.137 0)
(-379.13 943.983 0)
(-1027.58 1234.22 0)
(-1771.54 980.745 0)
(-2260.38 431.249 0)
(-2455.3 -7.63866 0)
(-2510.51 -261.204 0)
(-2523.57 -405.663 0)
(-2524.55 -521.935 0)
(-2517.64 -641.867 0)
(-2502.18 -764.828 0)
(-2477.54 -890.074 0)
(-2443.2 -1016.74 0)
(-2398.73 -1143.9 0)
(-2343.83 -1270.54 0)
(-2278.35 -1395.58 0)
(-2202.27 -1517.95 0)
(-2115.76 -1636.59 0)
(0.233459 17.2613 0)
(5.43845 55.3089 0)
(7.58683 176.934 0)
(-63.2266 476.212 0)
(-373.376 951.823 0)
(-1029.81 1261.66 0)
(-1802.8 1029.06 0)
(-2329.42 476.923 0)
(-2550.72 21.4653 0)
(-2618.66 -245.673 0)
(-2637.77 -398.903 0)
(-2642.89 -522.741 0)
(-2639.55 -650.975 0)
(-2626.95 -782.927 0)
(-2604.36 -917.779 0)
(-2571.15 -1054.57 0)
(-2526.8 -1192.25 0)
(-2470.95 -1329.65 0)
(-2403.4 -1465.55 0)
(-2324.15 -1598.71 0)
(-2233.38 -1727.88 0)
(0.256007 17.2609 0)
(5.61031 55.2906 0)
(8.49811 176.953 0)
(-59.9437 477.259 0)
(-367.37 959.635 0)
(-1031.32 1289.67 0)
(-1833.64 1080.22 0)
(-2400.12 527.839 0)
(-2650.5 56.1881 0)
(-2732.97 -225.004 0)
(-2759.17 -387.495 0)
(-2769.2 -519.406 0)
(-2770.17 -656.58 0)
(-2761.13 -798.293 0)
(-2741.2 -943.648 0)
(-2709.61 -1091.57 0)
(-2665.72 -1240.86 0)
(-2609.09 -1390.18 0)
(-2539.48 -1538.12 0)
(-2456.88 -1683.2 0)
(-2361.52 -1824.01 0)
(0.278543 17.2604 0)
(5.78219 55.2718 0)
(9.41201 176.967 0)
(-56.6226 478.279 0)
(-361.105 967.412 0)
(-1032.07 1318.24 0)
(-1863.88 1134.3 0)
(-2472.32 584.446 0)
(-2754.68 97.2727 0)
(-2853.73 -198.371 0)
(-2888.18 -370.605 0)
(-2904.06 -511.111 0)
(-2910.23 -657.909 0)
(-2905.57 -810.229 0)
(-2889.02 -967.09 0)
(-2859.64 -1127.29 0)
(-2816.64 -1289.45 0)
(-2759.46 -1452.03 0)
(-2687.8 -1613.36 0)
(-2601.64 -1771.73 0)
(-2501.25 -1925.45 0)
(0.301069 17.2599 0)
(5.95411 55.2526 0)
(10.3285 176.977 0)
(-53.2635 479.271 0)
(-354.575 975.149 0)
(-1031.98 1347.34 0)
(-1893.33 1191.37 0)
(-2545.8 647.208 0)
(-2863.26 145.547 0)
(-2981.17 -164.824 0)
(-3025.26 -347.256 0)
(-3048.05 -496.89 0)
(-3060.49 -654.037 0)
(-3061.21 -817.889 0)
(-3048.94 -987.378 0)
(-3022.49 -1161.16 0)
(-2980.91 -1337.64 0)
(-2923.47 -1515.05 0)
(-2849.78 -1691.39 0)
(-2759.79 -1864.63 0)
(-2653.85 -2032.76 0)
(0.323583 17.2593 0)
(6.12604 55.2328 0)
(11.2474 176.982 0)
(-49.8664 480.234 0)
(-347.773 982.839 0)
(-1030.99 1376.95 0)
(-1921.78 1251.48 0)
(-2620.27 716.604 0)
(-2976.15 201.931 0)
(-3115.51 -123.267 0)
(-3170.81 -316.304 0)
(-3201.81 -475.592 0)
(-3221.78 -643.847 0)
(-3229.1 -820.24 0)
(-3222.2 -1003.62 0)
(-3199.61 -1192.47 0)
(-3160.12 -1384.99 0)
(-3102.8 -1579.06 0)
(-3027.1 -1772.34 0)
(-2932.96 -1962.36 0)
(-2820.8 -2146.69 0)
(0.346087 17.2587 0)
(6.29801 55.2127 0)
(12.1689 176.983 0)
(-46.4314 481.167 0)
(-340.694 990.477 0)
(-1029.05 1407.04 0)
(-1948.98 1314.66 0)
(-2695.39 793.123 0)
(-3093.19 267.447 0)
(-3256.89 -72.4399 0)
(-3325.25 -276.406 0)
(-3365.97 -445.846 0)
(-3395.01 -625.988 0)
(-3410.41 -816.011 0)
(-3410.24 -1014.69 0)
(-3392.68 -1220.34 0)
(-3356.15 -1430.88 0)
(-3299.43 -1643.83 0)
(-3221.81 -1856.36 0)
(-3123.13 -2065.47 0)
(-3003.9 -2268.16 0)
(0.368578 17.2581 0)
(6.46997 55.192 0)
(13.0927 176.978 0)
(-42.959 482.071 0)
(-333.332 998.054 0)
(-1026.08 1437.57 0)
(-1974.69 1380.92 0)
(-2770.75 877.242 0)
(-3214.1 343.203 0)
(-3405.34 -10.9044 0)
(-3488.89 -225.993 0)
(-3541.12 -406.02 0)
(-3581.07 -598.824 0)
(-3606.38 -803.633 0)
(-3614.65 -1019.17 0)
(-3603.6 -1243.6 0)
(-3571.17 -1474.52 0)
(-3515.76 -1708.99 0)
(-3436.34 -1943.59 0)
(-3332.66 -2174.62 0)
(-3205.29 -2398.34 0)
(0.391057 17.2575 0)
(6.64194 55.1709 0)
(14.0187 176.969 0)
(-39.4493 482.945 0)
(-325.683 1005.56 0)
(-1022.03 1468.51 0)
(-1998.61 1450.28 0)
(-2845.82 969.437 0)
(-3338.45 430.417 0)
(-3560.79 62.9899 0)
(-3661.97 -163.217 0)
(-3727.83 -354.157 0)
(-3780.92 -560.35 0)
(-3818.39 -781.145 0)
(-3837.27 -1015.27 0)
(-3834.65 -1260.74 0)
(-3807.85 -1514.83 0)
(-3754.7 -1774.03 0)
(-3673.74 -2034.17 0)
(-3564.5 -2290.65 0)
(-3427.65 -2538.72 0)
(0.413524 17.2567 0)
(6.81391 55.1494 0)
(14.947 176.955 0)
(-35.9026 483.787 0)
(-317.741 1013 0)
(-1016.82 1499.81 0)
(-2020.45 1522.68 0)
(-2920 1070.15 0)
(-3465.66 530.385 0)
(-3722.95 151.11 0)
(-3844.58 -85.929 0)
(-3926.56 -287.925 0)
(-3995.49 -508.123 0)
(-4047.91 -746.097 0)
(-4080.15 -1000.68 0)
(-4088.48 -1269.78 0)
(-4069.37 -1550.32 0)
(-4019.83 -1838.18 0)
(-3937.77 -2128.22 0)
(-3822.36 -2414.61 0)
(-3674.33 -2691.25 0)
(0.435978 17.256 0)
(6.98587 55.1273 0)
(15.8774 176.937 0)
(-32.3192 484.599 0)
(-309.502 1020.35 0)
(-1010.38 1531.43 0)
(-2039.88 1598.1 0)
(-2992.57 1179.79 0)
(-3594.91 644.479 0)
(-3891.31 255.555 0)
(-4036.55 8.37101 0)
(-4137.6 -204.544 0)
(-4225.61 -439.152 0)
(-4296.45 -695.405 0)
(-4345.56 -972.385 0)
(-4368.15 -1268.03 0)
(-4359.55 -1578.95 0)
(-4315.59 -1900.28 0)
(-4233.2 -2225.7 0)
(-4110.97 -2547.74 0)
(-3949.57 -2858.43 0)
(0.45842 17.2552 0)
(7.15782 55.1049 0)
(16.8099 176.913 0)
(-28.6994 485.378 0)
(-300.962 1027.62 0)
(-1002.67 1563.33 0)
(-2056.54 1676.42 0)
(-3062.7 1298.68 0)
(-3725.12 774.102 0)
(-4064.98 378.648 0)
(-4237.4 122.552 0)
(-4360.92 -100.729 0)
(-4471.91 -349.789 0)
(-4565.46 -625.189 0)
(-4635.94 -926.498 0)
(-4677.23 -1251.88 0)
(-4683.04 -1597.78 0)
(-4647.55 -1958.54 0)
(-4566.17 -2326.36 0)
(-4436.48 -2691.57 0)
(-4258.94 -3043.53 0)
(0.480848 17.2544 0)
(7.32976 55.0819 0)
(17.7444 176.885 0)
(-25.0437 486.126 0)
(-292.117 1034.79 0)
(-993.603 1595.44 0)
(-2070.07 1757.55 0)
(-3129.4 1427.07 0)
(-3854.91 920.646 0)
(-4242.66 522.904 0)
(-4446.14 259.863 0)
(-4596.04 27.3662 0)
(-4734.64 -235.617 0)
(-4856.19 -530.569 0)
(-4953.83 -857.913 0)
(-5019.71 -1216.42 0)
(-5045.43 -1602.62 0)
(-5022.72 -2010.16 0)
(-4944.66 -2429.46 0)
(-4807.04 -2847.89 0)
(-4609.81 -3250.93 0)
(0.503263 17.2535 0)
(7.50167 55.0585 0)
(18.6809 176.852 0)
(-21.3524 486.84 0)
(-282.966 1041.85 0)
(-983.13 1627.72 0)
(-2080.11 1841.33 0)
(-3191.59 1565.1 0)
(-3982.52 1085.43 0)
(-4422.48 690.982 0)
(-4661.16 423.913 0)
(-4841.82 184.181 0)
(-5013.43 -91.3266 0)
(-5169.44 -405.436 0)
(-5301.63 -759.955 0)
(-5400.05 -1154.86 0)
(-5453.44 -1587.36 0)
(-5450.05 -2050.73 0)
(-5379.25 -2533.36 0)
(-5233.78 -3018.72 0)
(-5012.26 -3486.51 0)
(0.525665 17.2526 0)
(7.67356 55.0346 0)
(19.6191 176.815 0)
(-17.6259 487.521 0)
(-273.506 1048.8 0)
(-971.192 1660.1 0)
(-2086.25 1927.56 0)
(-3248.05 1712.74 0)
(-4105.81 1269.61 0)
(-4601.88 885.559 0)
(-4879.96 618.571 0)
(-5096.12 374.699 0)
(-5306.91 89.3276 0)
(-5505.14 -242.235 0)
(-5681.23 -623.929 0)
(-5822.82 -1057.9 0)
(-5914.96 -1543.05 0)
(-5940.89 -2073.13 0)
(-5884.17 -2634.71 0)
(-5732.15 -3206.08 0)
(-5480.51 -3758.36 0)
(0.548054 17.2517 0)
(7.84541 55.0103 0)
(20.5592 176.772 0)
(-13.8649 488.169 0)
(-263.734 1055.64 0)
(-957.734 1692.53 0)
(-2088.11 2016.02 0)
(-3297.43 1869.8 0)
(-4222.19 1474.03 0)
(-4777.47 1109.16 0)
(-5098.94 847.797 0)
(-5355.49 604.31 0)
(-5612.21 313.494 0)
(-5861.71 -31.8081 0)
(-6093.31 -438.638 0)
(-6292.18 -912.704 0)
(-6438.84 -1456.42 0)
(-6509.6 -2065.87 0)
(-6478.87 -2726.84 0)
(-6324.37 -3411.44 0)
(-6035.3 -4077.77 0)
(0.570428 17.2507 0)
(8.01722 54.9855 0)
(21.501 176.725 0)
(-10.0699 488.782 0)
(-253.651 1062.34 0)
(-942.709 1724.93 0)
(-2085.31 2106.44 0)
(-3338.31 2035.9 0)
(-4328.63 1699.14 0)
(-4944.95 1363.92 0)
(-5313.13 1115.33 0)
(-5614.7 878.504 0)
(-5924.31 588.986 0)
(-6235.14 236.577 0)
(-6536.23 -189.986 0)
(-6810.71 -701.888 0)
(-7034.22 -1307.92 0)
(-7173.93 -2010.09 0)
(-7190.15 -2796.69 0)
(-7043.34 -3634.02 0)
(-6708.37 -4460.85 0)
(0.592788 17.2497 0)
(8.18899 54.9602 0)
(22.4443 176.673 0)
(-6.24139 489.361 0)
(-243.255 1068.91 0)
(-926.073 1757.23 0)
(-2077.49 2198.51 0)
(-3369.19 2210.4 0)
(-4421.7 1944.81 0)
(-5099.04 1651.21 0)
(-5516.02 1424.26 0)
(-5866.35 1202.33 0)
(-6235.25 923.725 0)
(-6617.77 574.819 0)
(-7004.19 139.085 0)
(-7377.28 -402.385 0)
(-7708.58 -1068.87 0)
(-7954.57 -1874.76 0)
(-8055.02 -2818.75 0)
(-7939.57 -3866.49 0)
(-7551 -4930.62 0)
(0.615133 17.2486 0)
(8.36071 54.9345 0)
(23.3892 176.615 0)
(-2.38008 489.904 0)
(-232.547 1075.34 0)
(-907.789 1789.38 0)
(-2064.29 2291.89 0)
(-3388.6 2392.44 0)
(-4497.69 2210.16 0)
(-5233.54 1971.29 0)
(-5699.46 1776.33 0)
(-6100.51 1579.56 0)
(-6533.36 1324.69 0)
(-6996.7 994.852 0)
(-7484.71 567.791 0)
(-7983.2 14.9022 0)
(-8463.32 -698.539 0)
(-8872.33 -1609.34 0)
(-9123.28 -2743.09 0)
(-9093.07 -4083.51 0)
(-8652.14 -5518.68 0)
(0.637464 17.2475 0)
(8.53237 54.9083 0)
(24.3355 176.553 0)
(1.51336 490.411 0)
(-221.529 1081.61 0)
(-887.828 1821.28 0)
(-2045.41 2386.18 0)
(-3395.07 2580.88 0)
(-4552.71 2493.47 0)
(-5341.6 2322.8 0)
(-5853.83 2171.25 0)
(-6304.71 2011.52 0)
(-6802.75 1796.26 0)
(-7352.39 1506.47 0)
(-7955.34 1115.05 0)
(-8606.42 583.455 0)
(-9285.08 -142.327 0)
(-9938.97 -1133.91 0)
(-10456.4 -2472.75 0)
(-10633.5 -4211.27 0)
(-10180.1 -6258.91 0)
(0.659779 17.2464 0)
(8.70397 54.8817 0)
(25.2832 176.487 0)
(5.43823 490.883 0)
(-210.202 1087.72 0)
(-866.17 1852.87 0)
(-2020.59 2480.98 0)
(-3387.32 2774.37 0)
(-4583 2792.08 0)
(-5416.08 2702.47 0)
(-5968.63 2605.85 0)
(-6464.46 2495.78 0)
(-7023.55 2338.04 0)
(-7657.86 2113.82 0)
(-8380.6 1794.4 0)
(-9203.65 1334.96 0)
(-10130.2 664.239 0)
(-11134.2 -331.369 0)
(-12110.1 -1825.89 0)
(-12767.8 -4047.83 0)
(-12489.1 -7132.93 0)
(0.68208 17.2452 0)
(8.87551 54.8545 0)
(26.2322 176.415 0)
(9.39381 491.318 0)
(-198.569 1093.67 0)
(-842.801 1884.08 0)
(-1989.64 2575.85 0)
(-3364.22 2971.3 0)
(-4585.19 3102.38 0)
(-5450.28 3104.81 0)
(-6033.43 3073.5 0)
(-6564.63 3024.96 0)
(-7173.48 2942.46 0)
(-7880.04 2810.85 0)
(-8711.31 2605.67 0)
(-9703.38 2285.53 0)
(-10902.4 1776.82 0)
(-12355.8 941.161 0)
(-14063.5 -493.774 0)
(-15784.4 -3071.28 0)
(-16420.4 -7762.71 0)
(0.704365 17.2414 0)
(9.04697 54.8248 0)
(27.1824 176.337 0)
(13.3793 491.714 0)
(-186.634 1099.44 0)
(-817.719 1914.81 0)
(-1952.41 2670.31 0)
(-3324.99 3169.89 0)
(-4556.66 3419.93 0)
(-5438.69 3522.26 0)
(-6039.33 3563.99 0)
(-6591.65 3586.12 0)
(-7231.35 3593.12 0)
(-7984.74 3577.2 0)
(-8890.48 3525.24 0)
(-10008.2 3413.77 0)
(-11435 3197.38 0)
(-13338 2778.22 0)
(-16004.5 1914.67 0)
(-19822.9 -103.38 0)
(-24242.4 -5823.84 0)
(-1251.51 -928.511 0)
(-1192.64 -970.622 0)
(-1129.96 -1008.66 0)
(-1063.59 -1042.22 0)
(-993.674 -1070.93 0)
(-920.352 -1094.4 0)
(-843.799 -1112.28 0)
(-764.195 -1124.18 0)
(-681.719 -1129.75 0)
(-596.555 -1128.62 0)
(-508.902 -1120.42 0)
(-418.962 -1104.77 0)
(-326.937 -1081.27 0)
(-233.031 -1049.5 0)
(-137.47 -1009.01 0)
(-40.4928 -959.333 0)
(57.6529 -899.94 0)
(156.697 -830.264 0)
(256.329 -749.687 0)
(356.197 -657.539 0)
(455.913 -553.074 0)
(555.027 -435.475 0)
(653.006 -303.858 0)
(749.228 -157.267 0)
(842.977 5.35579 0)
(933.413 185.16 0)
(1019.54 383.364 0)
(1100.17 601.278 0)
(1173.96 840.344 0)
(1239.28 1102.06 0)
(1294.22 1388.02 0)
(1335.85 1699.95 0)
(1007.44 1964.3 0)
(1286.34 2320.01 0)
(1271.09 2707.53 0)
(1231.51 3127.2 0)
(1162.16 3580.78 0)
(1057.45 4070.21 0)
(910.865 4597.4 0)
(714.636 5164.35 0)
(459.465 5773.03 0)
(134 6425.63 0)
(-275.552 7124.67 0)
(-1985.55 7711.42 0)
(-1428.11 8487.63 0)
(-2202.6 9315.89 0)
(-3166.08 10200.1 0)
(-4374.64 11147.9 0)
(-5912.86 12173 0)
(-7917.94 13302.9 0)
(-10634.3 14601.3 0)
(-14557.5 16239.9 0)
(-20897.4 18826.2 0)
(-33417.1 25773.4 0)
(-1295.17 -984.428 0)
(-1232.56 -1030.42 0)
(-1165.75 -1072.21 0)
(-1094.88 -1109.41 0)
(-1020.08 -1141.61 0)
(-941.522 -1168.42 0)
(-859.374 -1189.46 0)
(-773.825 -1204.35 0)
(-685.053 -1212.74 0)
(-593.24 -1214.25 0)
(-498.577 -1208.5 0)
(-401.254 -1195.12 0)
(-301.453 -1173.7 0)
(-199.355 -1143.82 0)
(-95.1541 -1105.02 0)
(10.9463 -1056.82 0)
(118.744 -998.682 0)
(228.02 -930.008 0)
(338.517 -850.154 0)
(449.949 -758.41 0)
(561.996 -653.982 0)
(674.283 -535.991 0)
(786.358 -403.482 0)
(897.685 -255.408 0)
(1007.64 -90.6043 0)
(1115.48 92.2044 0)
(1220.29 294.39 0)
(1321.02 517.438 0)
(1416.41 762.999 0)
(1504.94 1032.82 0)
(1584.86 1328.78 0)
(1652.75 1652.96 0)
(1348.99 1934.13 0)
(1650.22 2308.75 0)
(1666.64 2717.26 0)
(1660.65 3162 0)
(1627.03 3645.45 0)
(1560.34 4170.43 0)
(1454.19 4739.85 0)
(1300.99 5357.04 0)
(1091.69 6025.57 0)
(815.375 6749.69 0)
(458.85 7534.36 0)
(-1289.45 8219.8 0)
(-596.108 9120.95 -6.8518e-18)
(-1304.62 10104.6 6.81443e-18)
(-2187.66 11186 0)
(-3294.76 12390.5 6.6238e-18)
(-4691.41 13762 0)
(-6478.33 15382.8 0)
(-8799.16 17420 0)
(-11853.5 20253.9 0)
(-15758.3 24840.9 0)
(-19284.6 33489.3 0)
(-1342.74 -1043.77 0)
(-1276.3 -1094.02 0)
(-1205.24 -1139.96 0)
(-1129.73 -1181.15 0)
(-1049.9 -1217.19 0)
(-965.948 -1247.68 0)
(-878.043 -1272.22 0)
(-786.381 -1290.45 0)
(-691.145 -1301.98 0)
(-592.514 -1306.46 0)
(-490.672 -1303.52 0)
(-385.797 -1292.77 0)
(-278.052 -1273.81 0)
(-167.588 -1246.24 0)
(-54.5691 -1209.58 0)
(60.8441 -1163.34 0)
(178.498 -1106.99 0)
(298.232 -1039.91 0)
(419.852 -961.427 0)
(543.143 -870.805 0)
(667.864 -767.205 0)
(793.732 -649.696 0)
(920.385 -517.252 0)
(1047.39 -368.746 0)
(1174.23 -202.911 0)
(1300.28 -18.3496 0)
(1424.76 186.456 0)
(1546.73 413.162 0)
(1665.07 663.621 0)
(1778.43 939.818 0)
(1885.19 1243.9 0)
(1981.3 1578.24 0)
(1709.16 1876.53 0)
(2031.66 2266.78 0)
(2083.08 2694.16 0)
(2114.82 3161.64 0)
(2121.82 3672.47 0)
(2098.93 4230.28 0)
(2040.08 4839 0)
(1938.09 5503.15 0)
(1784.51 6227.75 0)
(1569.26 7018.88 0)
(1280.35 7883.79 0)
(-478.439 8663.19 0)
(361.41 9680.42 0)
(-245.736 10805.7 0)
(-1005.89 12062.2 0)
(-1951.88 13485.9 0)
(-3123.17 15135.2 0)
(-4562.67 17109.1 0)
(-6299.58 19581.6 0)
(-8283.64 22861 0)
(-10169.2 27434.4 0)
(-10827.9 33653.1 0)
(-1394.61 -1106.63 0)
(-1324.22 -1161.54 0)
(-1248.78 -1212 0)
(-1168.48 -1257.57 0)
(-1083.48 -1297.82 0)
(-993.961 -1332.34 0)
(-900.128 -1360.72 0)
(-802.184 -1382.61 0)
(-700.316 -1397.63 0)
(-594.703 -1405.42 0)
(-485.525 -1405.62 0)
(-372.948 -1397.86 0)
(-257.112 -1381.76 0)
(-138.142 -1356.9 0)
(-16.164 -1322.83 0)
(108.706 -1279.06 0)
(236.37 -1225.04 0)
(366.73 -1160.16 0)
(499.664 -1083.73 0)
(635.036 -994.983 0)
(772.699 -893.053 0)
(912.466 -776.958 0)
(1054.09 -645.615 0)
(1197.24 -497.82 0)
(1341.55 -332.213 0)
(1486.51 -147.283 0)
(1631.5 58.6239 0)
(1775.73 287.329 0)
(1918.26 540.877 0)
(2057.92 821.479 0)
(2193.26 1131.55 0)
(2319.57 1473.76 0)
(2086.17 1788 0)
(2428.21 2191.23 0)
(2517.96 2634.69 0)
(2591.37 3121.94 0)
(2643.67 3656.88 0)
(2670.07 4243.94 0)
(2664.99 4887.93 0)
(2621.88 5594.42 0)
(2533.11 6369.68 0)
(2389.77 7221.28 0)
(2181.54 8158.21 0)
(440.63 9023.97 0)
(1434.13 10143 0)
(950.142 11389.4 0)
(342.529 12789.5 0)
(-406.47 14381.7 0)
(-1308.48 16223.3 7.77958e-18)
(-2370.84 18400.4 -7.70829e-18)
(-3542.77 21038.6 0)
(-4698.79 24303.5 0)
(-5519.92 28334.1 0)
(-5451.64 33002.7 6.96997e-18)
(-1451.17 -1173.1 0)
(-1376.71 -1233.09 0)
(-1296.75 -1288.49 0)
(-1211.5 -1338.83 0)
(-1121.15 -1383.65 0)
(-1025.89 -1422.55 0)
(-925.953 -1455.13 0)
(-821.55 -1481.01 0)
(-712.882 -1499.84 0)
(-600.13 -1511.27 0)
(-483.471 -1514.95 0)
(-363.059 -1510.54 0)
(-239.014 -1497.66 0)
(-111.429 -1475.92 0)
(19.6088 -1444.89 0)
(154.032 -1404.08 0)
(291.801 -1352.95 0)
(432.889 -1290.9 0)
(577.255 -1217.22 0)
(724.85 -1131.14 0)
(875.629 -1031.76 0)
(1029.52 -918.065 0)
(1186.39 -788.926 0)
(1346.05 -643.07 0)
(1508.27 -479.054 0)
(1672.71 -295.265 0)
(1838.92 -89.9223 0)
(2006.28 138.946 0)
(2174.07 393.567 0)
(2341.31 676.364 0)
(2506.79 990.004 0)
(2665.13 1337.46 0)
(2477.85 1666.07 0)
(2837.09 2079.25 0)
(2968.28 2535.52 0)
(3087.02 3038.95 0)
(3188.93 3594.06 0)
(3269.7 4205.95 0)
(3324.32 4880.22 0)
(3347 5623.32 0)
(3331.09 6442.51 0)
(3269.02 7346.42 0)
(3152.31 8345.21 0)
(1455.1 9287.33 0)
(2603.25 10491.3 0)
(2258.3 11835.1 0)
(1819.42 13344.6 0)
(1281.26 15054.7 0)
(647.563 17012.4 0)
(-58.5846 19279 0)
(-776.731 21926.9 0)
(-1382.78 25020.3 0)
(-1670.44 28557.9 0)
(-1396.23 32374.5 0)
(-1512.85 -1243.29 0)
(-1434.17 -1308.81 0)
(-1349.54 -1369.58 0)
(-1259.17 -1425.08 0)
(-1163.27 -1474.87 0)
(-1062.07 -1518.51 0)
(-955.836 -1555.62 0)
(-844.79 -1585.82 0)
(-729.151 -1608.77 0)
(-609.105 -1624.15 0)
(-484.831 -1631.64 0)
(-356.471 -1630.91 0)
(-224.123 -1621.61 0)
(-87.8511 -1603.39 0)
(52.3007 -1575.82 0)
(196.317 -1538.46 0)
(344.225 -1490.79 0)
(496.072 -1432.18 0)
(651.905 -1361.97 0)
(811.773 -1279.37 0)
(975.742 -1183.45 0)
(1143.86 -1073.2 0)
(1316.14 -947.424 0)
(1492.54 -804.81 0)
(1672.98 -643.841 0)
(1857.32 -462.817 0)
(2045.28 -259.842 0)
(2236.47 -32.8088 0)
(2430.38 220.674 0)
(2626.28 503.229 0)
(2823.26 817.755 0)
(3015.21 1167.5 0)
(2881.59 1508.5 0)
(3255.07 1928.27 0)
(3430.52 2393.58 0)
(3597.91 2909.07 0)
(3753.32 3479.75 0)
(3892.99 4111.36 0)
(4012.56 4810.13 0)
(4107.08 5583.22 0)
(4170.89 6438.62 0)
(4197.79 7385.65 0)
(4181.06 8435.06 0)
(2554.99 9442.35 0)
(3849.6 10713.6 0)
(3652.31 12131.6 0)
(3387.78 13719.2 0)
(3058.27 15505 0)
(2676.22 17523 0)
(2269.09 19810.9 -9.39301e-18)
(1899.92 22403 0)
(1652.8 25311.2 0)
(1649.17 28494.3 0)
(1997.59 31825.3 0)
(-1580.09 -1317.32 0)
(-1497.05 -1388.86 0)
(-1407.55 -1455.44 0)
(-1311.84 -1516.53 0)
(-1210.18 -1571.66 0)
(-1102.84 -1620.41 0)
(-990.09 -1662.37 0)
(-872.204 -1697.2 0)
(-749.414 -1724.58 0)
(-621.922 -1744.2 0)
(-489.906 -1755.79 0)
(-353.503 -1759.04 0)
(-212.79 -1753.67 0)
(-67.7964 -1739.33 0)
(81.476 -1715.66 0)
(235.069 -1682.22 0)
(393.079 -1638.54 0)
(555.637 -1584.01 0)
(722.882 -1517.99 0)
(894.972 -1439.68 0)
(1072.09 -1348.17 0)
(1254.43 -1242.42 0)
(1442.14 -1121.22 0)
(1635.35 -983.217 0)
(1834.17 -826.835 0)
(2038.63 -650.299 0)
(2248.69 -451.621 0)
(2464.19 -228.573 0)
(2684.87 21.3824 0)
(2910.29 301.044 0)
(3139.82 613.522 0)
(3366.68 962.312 0)
(3294.38 1313.41 0)
(3678.58 1735.97 0)
(3900.72 2206.17 0)
(4119.64 2729.08 0)
(4331.93 3310.23 0)
(4534.44 3955.83 0)
(4723.49 4672.68 0)
(4894.95 5468.48 0)
(5044.16 6351.72 0)
(5166.14 7332.12 0)
(5255.71 8420.61 0)
(3724.03 9481.62 0)
(5154.37 10803.3 0)
(5107.96 12274.7 0)
(5016.25 13914.7 0)
(4885.06 15744.9 0)
(4729 17787.9 0)
(4575.41 20064.2 0)
(4467.98 22584.9 0)
(4466.47 25340.1 0)
(4637.03 28284 0)
(5028.44 31327.1 0)
(-1653.38 -1395.35 0)
(-1565.79 -1473.41 0)
(-1471.2 -1546.27 0)
(-1369.92 -1613.39 0)
(-1262.26 -1674.26 0)
(-1148.51 -1728.46 0)
(-1029.01 -1775.6 0)
(-904.071 -1815.35 0)
(-773.941 -1847.42 0)
(-638.847 -1871.55 0)
(-498.973 -1887.5 0)
(-354.45 -1895.02 0)
(-205.336 -1893.86 0)
(-51.6281 -1883.75 0)
(106.72 -1864.35 0)
(269.809 -1835.29 0)
(437.811 -1796.12 0)
(610.944 -1746.29 0)
(789.45 -1685.16 0)
(973.601 -1611.97 0)
(1163.72 -1525.82 0)
(1360.13 -1425.67 0)
(1563.15 -1310.29 0)
(1773.08 -1178.31 0)
(1990.23 -1028.12 0)
(2214.86 -857.885 0)
(2447.16 -665.54 0)
(2687.21 -448.759 0)
(2935.06 -204.881 0)
(3190.56 69.045 0)
(3453.42 376.315 0)
(3716.19 720.644 0)
(3712.86 1079.2 0)
(4103.64 1500.45 0)
(4374.49 1970.97 0)
(4647.35 2496.26 0)
(4919.38 3082.27 0)
(5188.04 3735.66 0)
(5450.36 4463.67 0)
(5702.98 5274.43 0)
(5942.15 6176.77 0)
(6163.94 7180.62 0)
(6364.38 8296.82 0)
(4952.85 9400.67 0)
(6499.99 10757.5 0)
(6604.29 12264.8 0)
(6681.91 13937.7 0)
(6736.27 15791.4 0)
(6782.02 17840 0)
(6840.11 20092.8 0)
(6938.83 22548.7 -1.14705e-17)
(7124.69 25191.2 0)
(7417.79 27978.9 0)
(7845.94 30848.9 1.25181e-17)
(-1733.24 -1477.55 0)
(-1640.87 -1562.68 0)
(-1540.94 -1642.33 0)
(-1433.81 -1715.91 0)
(-1319.84 -1782.92 0)
(-1199.41 -1842.92 0)
(-1072.89 -1895.54 0)
(-940.646 -1940.48 0)
(-802.971 -1977.48 0)
(-660.113 -2006.34 0)
(-512.268 -2026.86 0)
(-359.567 -2038.88 0)
(-202.048 -2042.2 0)
(-39.6731 -2036.6 0)
(127.651 -2021.82 0)
(300.089 -1997.55 0)
(477.892 -1963.39 0)
(661.373 -1918.83 0)
(850.882 -1863.29 0)
(1046.82 -1796.03 0)
(1249.63 -1716.19 0)
(1459.82 -1622.73 0)
(1677.86 -1514.45 0)
(1904.25 -1389.95 0)
(2139.51 -1247.6 0)
(2384.14 -1085.55 0)
(2638.56 -901.661 0)
(2903.17 -693.541 0)
(3178.29 -458.43 0)
(3464.13 -193.25 0)
(3760.77 105.45 0)
(4060.06 441.574 0)
(4133.3 804.676 0)
(4525.96 1220.18 0)
(4847.07 1686.1 0)
(5175.79 2208.34 0)
(5509.84 2793.22 0)
(5847.35 3447.78 0)
(6185.99 4179.63 0)
(6523.18 4997.28 0)
(6855.94 5909.79 0)
(7181.17 6927.21 0)
(7495.79 8060.23 0)
(6223.75 9196.41 0)
(7875.54 10575.8 0)
(8129.43 12105 0)
(8368.07 13796.2 0)
(8596.62 15660.3 0)
(8824.69 17705.5 0)
(9066.82 19934.3 0)
(9342.01 22340.8 0)
(9670.97 24906.1 0)
(10070.9 27597.1 0)
(10548.5 30367.2 0)
(-1820.22 -1564.13 0)
(-1722.81 -1656.92 0)
(-1617.23 -1743.89 0)
(-1503.91 -1824.41 0)
(-1383.29 -1897.95 0)
(-1255.83 -1964.09 0)
(-1121.98 -2022.46 0)
(-982.153 -2072.81 0)
(-836.702 -2114.93 0)
(-685.906 -2148.69 0)
(-529.982 -2173.96 0)
(-369.06 -2190.64 0)
(-203.161 -2198.62 0)
(-32.2128 -2197.77 0)
(143.928 -2187.91 0)
(325.496 -2168.79 0)
(512.824 -2140.08 0)
(706.328 -2101.35 0)
(906.47 -2052.06 0)
(1113.78 -1991.52 0)
(1328.86 -1918.92 0)
(1552.37 -1833.25 0)
(1784.97 -1733.34 0)
(2027.37 -1617.79 0)
(2280.31 -1484.98 0)
(2544.52 -1333.03 0)
(2820.72 -1159.8 0)
(3109.58 -962.822 0)
(3411.79 -739.28 0)
(3727.9 -485.998 0)
(4058.39 -199.4 0)
(4394.45 124.571 0)
(4551.69 488.974 0)
(4940.98 894.029 0)
(5313.42 1350.14 0)
(5699.38 1863.58 0)
(6097.18 2440.97 0)
(6505.59 3089.72 0)
(6922.98 3817.79 0)
(7347.42 4633.99 0)
(7776.61 5547.64 0)
(8208.14 6568.9 0)
(8639.48 7708.33 0)
(7530.65 8867.6 0)
(9265.87 10258 0)
(9667.7 11797.9 0)
(10064.2 13497.2 0)
(10458.2 15364 0)
(10855.4 17402.9 0)
(11264 19613 0)
(11693.7 21986.2 0)
(12154.2 24505.1 0)
(12651.5 27142.4 0)
(13184.2 29862.5 0)
(-1914.95 -1655.35 0)
(-1812.16 -1756.44 0)
(-1700.55 -1851.3 0)
(-1580.63 -1939.24 0)
(-1452.95 -2019.71 0)
(-1318.06 -2092.3 0)
(-1176.5 -2156.67 0)
(-1028.77 -2212.61 0)
(-875.279 -2259.99 0)
(-716.357 -2298.74 0)
(-552.243 -2328.85 0)
(-383.072 -2350.29 0)
(-208.85 -2363.07 0)
(-29.4687 -2367.14 0)
(155.27 -2362.42 0)
(345.671 -2348.74 0)
(542.159 -2325.87 0)
(745.253 -2293.46 0)
(955.541 -2251.03 0)
(1173.69 -2197.97 0)
(1400.45 -2133.52 0)
(1636.66 -2056.72 0)
(1883.19 -1966.43 0)
(2140.93 -1861.3 0)
(2410.87 -1739.73 0)
(2694.01 -1599.85 0)
(2991.35 -1439.5 0)
(3303.89 -1256.22 0)
(3632.66 -1047.14 0)
(3978.61 -809.014 0)
(4342.62 -538.192 0)
(4715.28 -230.495 0)
(4963.6 131.776 0)
(5343.76 521.436 0)
(5768.1 962.257 0)
(6212.11 1460.83 0)
(6674.79 2024.07 0)
(7155.57 2659.72 0)
(7653.46 3376.08 0)
(8167.2 4182.28 0)
(8695.08 5087.93 0)
(9235.2 6103.38 0)
(9785.37 7239.21 0)
(8861.84 8412.9 0)
(10661.9 9804.22 0)
(11211 11345.6 0)
(11762.6 13045.8 0)
(12317.1 14910.9 0)
(12875.9 16943.8 0)
(13441.5 19142.2 0)
(14016.7 21498 0)
(14602.8 23995.7 0)
(15198.3 26612 0)
(15796.5 29319 0)
(-2018.09 -1751.53 0)
(-1909.53 -1861.64 0)
(-1791.42 -1964.98 0)
(-1664.4 -2060.84 0)
(-1529.15 -2148.64 0)
(-1386.34 -2227.97 0)
(-1236.63 -2298.53 0)
(-1080.61 -2360.18 0)
(-918.783 -2412.88 0)
(-751.522 -2456.66 0)
(-579.104 -2491.6 0)
(-401.672 -2517.82 0)
(-219.216 -2535.42 0)
(-31.5905 -2544.49 0)
(161.461 -2545.05 0)
(360.319 -2537.04 0)
(565.503 -2520.33 0)
(777.647 -2494.67 0)
(997.464 -2459.66 0)
(1225.76 -2414.78 0)
(1463.47 -2359.32 0)
(1711.6 -2292.42 0)
(1971.2 -2212.99 0)
(2243.41 -2119.74 0)
(2529.45 -2011.1 0)
(2830.61 -1885.25 0)
(3148.17 -1740.05 0)
(3483.48 -1573.04 0)
(3837.94 -1381.36 0)
(4212.89 -1161.74 0)
(4609.69 -910.471 0)
(5018.34 -623.305 0)
(5364.53 -266.951 0)
(5729.34 102.171 0)
(6205.58 521.974 0)
(6707.9 999.338 0)
(7236 1541.47 0)
(7790.02 2156.42 0)
(8369.61 2852.84 0)
(8974.16 3640.22 0)
(9602.53 4528.55 0)
(10253.2 5528.49 0)
(10924.3 6650.9 0)
(10208.5 7830.78 0)
(12055.2 9213.92 0)
(12752.3 10748.9 0)
(13458.9 12444 0)
(14172.4 14304.7 0)
(14890.5 16333.3 0)
(15610.6 18527.7 0)
(16329.5 20880 0)
(17042.4 23376.9 0)
(17742 25999 0)
(18417.6 28722.2 0)
(-2130.41 -1853.07 0)
(-2015.56 -1972.97 0)
(-1890.38 -2085.47 0)
(-1755.65 -2189.77 0)
(-1612.21 -2285.27 0)
(-1460.89 -2371.59 0)
(-1302.49 -2448.49 0)
(-1137.74 -2515.89 0)
(-967.212 -2573.87 0)
(-791.37 -2622.59 0)
(-610.526 -2662.27 0)
(-424.834 -2693.17 0)
(-234.267 -2715.53 0)
(-38.6393 -2729.57 0)
(162.369 -2735.45 0)
(369.22 -2733.25 0)
(582.538 -2722.93 0)
(803.073 -2704.36 0)
(1031.67 -2677.25 0)
(1269.3 -2641.18 0)
(1517.04 -2595.53 0)
(1776.1 -2539.51 0)
(2047.75 -2472.12 0)
(2333.33 -2392.15 0)
(2634.32 -2298.1 0)
(2952.3 -2188.21 0)
(3288.87 -2060.4 0)
(3645.7 -1912.26 0)
(4024.6 -1740.94 0)
(4427.33 -1543.22 0)
(4855.73 -1315.35 0)
(5299.25 -1053.08 0)
(5749.6 -706.548 0)
(6092.35 -363.288 0)