/*--------------------------------*- C++ -*----------------------------------*\
  =========                 |
  \\      /  F ield         | OpenFOAM: The Open Source CFD Toolbox
   \\    /   O peration     | Website:  https://openfoam.org
    \\  /    A nd           | Version:  7
     \\/     M anipulation  |
\*---------------------------------------------------------------------------*/
FoamFile
{
    version     2.0;
    format      ascii;
    class       volScalarField;
    location    "0/dielectric";
    object      voltDrho;
}
// * * * * * * * * * * * * * * * * * * * * * * * * * * * * * * * * * * * * * //

dimensions      [1 2 -3 0 0 -1 0];

internalField   nonuniform List<scalar> 
127636
(
-23.2898
-23.2842
-23.5299
-23.3028
-21.742
-19.0327
-16.5461
-15.0418
-14.2843
-13.9201
-13.7281
-13.5804
-13.4342
-13.29
-13.148
-13.0087
-12.8722
-12.7391
-12.6096
-12.4841
-12.363
-23.2913
-23.289
-23.5455
-23.3436
-21.818
-19.1195
-16.601
-15.0573
-14.275
-13.898
-13.6991
-13.5459
-13.3944
-13.2447
-13.0974
-12.9527
-12.8111
-12.6729
-12.5385
-12.4084
-12.2829
-23.2928
-23.2939
-23.561
-23.3846
-21.8946
-19.2082
-16.658
-15.0739
-14.2657
-13.8752
-13.6689
-13.51
-13.3527
-13.1973
-13.0442
-12.8938
-12.7467
-12.603
-12.4634
-12.3283
-12.198
-23.2944
-23.2988
-23.5766
-23.4256
-21.972
-19.2987
-16.7173
-15.0916
-14.2564
-13.8517
-13.6376
-13.4726
-13.3092
-13.1476
-12.9884
-12.832
-12.6789
-12.5294
-12.3842
-12.2436
-12.1082
-23.2959
-23.3037
-23.5922
-23.4667
-22.0501
-19.3912
-16.7791
-15.1107
-14.2473
-13.8276
-13.6053
-13.4338
-13.2638
-13.0957
-12.93
-12.7671
-12.6076
-12.4519
-12.3006
-12.1541
-12.013
-23.2974
-23.3086
-23.6078
-23.508
-22.1289
-19.4857
-16.8435
-15.1314
-14.2385
-13.803
-13.572
-13.3937
-13.2167
-13.0417
-12.8689
-12.6991
-12.5327
-12.3703
-12.2123
-12.0595
-11.9123
-23.2989
-23.3135
-23.6234
-23.5493
-22.2083
-19.5822
-16.9107
-15.154
-14.2302
-13.778
-13.5378
-13.3522
-13.1679
-12.9853
-12.8051
-12.6279
-12.4541
-12.2843
-12.1193
-11.9596
-11.8058
-23.3005
-23.3184
-23.639
-23.5908
-22.2885
-19.6809
-16.9809
-15.1786
-14.2227
-13.7529
-13.5029
-13.3095
-13.1173
-12.9268
-12.7386
-12.5533
-12.3716
-12.194
-12.0213
-11.8541
-11.6932
-23.302
-23.3233
-23.6546
-23.6324
-22.3693
-19.7817
-17.0544
-15.2057
-14.2161
-13.7277
-13.4674
-13.2658
-13.0652
-12.8661
-12.6693
-12.4754
-12.2851
-12.0991
-11.9181
-11.7428
-11.574
-23.3035
-23.3282
-23.6702
-23.6741
-22.4509
-19.8848
-17.1313
-15.2354
-14.2108
-13.7028
-13.4315
-13.2211
-13.0115
-12.8034
-12.5974
-12.3942
-12.1946
-11.9995
-11.8094
-11.6254
-11.4481
-23.305
-23.3331
-23.6858
-23.7158
-22.5332
-19.9902
-17.2118
-15.2681
-14.207
-13.6784
-13.3954
-13.1757
-12.9565
-12.7386
-12.5227
-12.3096
-12.1
-11.8949
-11.6952
-11.5016
-11.3151
-23.3065
-23.3379
-23.7014
-23.7577
-22.6161
-20.0979
-17.2963
-15.3043
-14.2052
-13.6548
-13.3594
-13.1297
-12.9004
-12.672
-12.4454
-12.2215
-12.0012
-11.7854
-11.5751
-11.3712
-11.1747
-23.3081
-23.3428
-23.717
-23.7997
-22.6997
-20.208
-17.3849
-15.3442
-14.2056
-13.6323
-13.3238
-13.0836
-12.8433
-12.6037
-12.3656
-12.1301
-11.8982
-11.6707
-11.4489
-11.2337
-11.0263
-23.3096
-23.3477
-23.7326
-23.8417
-22.7841
-20.3205
-17.4779
-15.3884
-14.2089
-13.6114
-13.289
-13.0375
-12.7855
-12.5338
-12.2835
-12.0354
-11.7908
-11.5508
-11.3164
-11.089
-10.8697
-23.3111
-23.3526
-23.7482
-23.8839
-22.8691
-20.4356
-17.5755
-15.4374
-14.2156
-13.5926
-13.2554
-12.9919
-12.7274
-12.4628
-12.1991
-11.9375
-11.6792
-11.4254
-11.1775
-10.9367
-10.7044
-23.3126
-23.3575
-23.7638
-23.9261
-22.9548
-20.5531
-17.6781
-15.4916
-14.2261
-13.5764
-13.2236
-12.9473
-12.6694
-12.3908
-12.1128
-11.8365
-11.5633
-11.2945
-11.0317
-10.7764
-10.5299
-23.3142
-23.3623
-23.7795
-23.9685
-23.0412
-20.6733
-17.7858
-15.5516
-14.2412
-13.5635
-13.1941
-12.9042
-12.612
-12.3184
-12.0249
-11.7326
-11.4431
-11.158
-10.879
-10.6077
-10.3457
-23.3157
-23.3672
-23.7951
-24.0109
-23.1282
-20.7961
-17.8989
-15.618
-14.2617
-13.5546
-13.1678
-12.8634
-12.5558
-12.2461
-11.9357
-11.6261
-11.3189
-11.0159
-10.719
-10.4301
-10.1511
-23.3172
-23.3721
-23.8107
-24.0534
-23.216
-20.9216
-18.0178
-15.6916
-14.2884
-13.5507
-13.1453
-12.8255
-12.5015
-12.1744
-11.8458
-11.5172
-11.1906
-10.8679
-10.5514
-10.2432
-9.94544
-23.3187
-23.3769
-23.8263
-24.096
-23.3044
-21.0498
-18.1426
-15.7728
-14.3223
-13.5527
-13.1279
-12.7917
-12.4501
-12.1043
-11.7558
-11.4066
-11.0587
-10.7143
-10.376
-10.0463
-9.72788
-23.3202
-23.3818
-23.8419
-24.1386
-23.3934
-21.1808
-18.2737
-15.8626
-14.3644
-13.5618
-13.1165
-12.7631
-12.4026
-12.0366
-11.6666
-11.2948
-10.9233
-10.5549
-10.1924
-9.83892
-9.49743
-23.3218
-23.3867
-23.8575
-24.1813
-23.4831
-21.3145
-18.4113
-15.9617
-14.4159
-13.5794
-13.1127
-12.7409
-12.3604
-11.9726
-11.5792
-11.1825
-10.7851
-10.3899
-10.0004
-9.62021
-9.25295
-23.3233
-23.3915
-23.8731
-24.2241
-23.5735
-21.451
-18.5557
-16.0708
-14.4781
-13.6069
-13.118
-12.727
-12.3251
-11.9139
-11.495
-11.071
-10.6447
-10.2195
-9.79965
-9.38932
-8.993
-23.3248
-23.3964
-23.8887
-24.267
-23.6645
-21.5904
-18.7072
-16.1909
-14.5525
-13.6462
-13.1343
-12.7231
-12.2987
-11.8623
-11.4157
-10.9616
-10.5031
-10.0443
-9.58988
-9.14523
-8.71586
-23.3263
-23.4013
-23.9044
-24.3099
-23.7561
-21.7326
-18.8659
-16.3227
-14.6406
-13.6992
-13.1639
-12.7318
-12.2835
-11.8202
-11.3436
-10.8563
-10.3619
-9.86481
-9.37092
-8.88676
-8.41932
-23.3279
-23.4061
-23.92
-24.3529
-23.8483
-21.8776
-19.0321
-16.4671
-14.7441
-13.7681
-13.2092
-12.7556
-12.2826
-11.7907
-11.2816
-10.7578
-10.223
-9.68238
-9.14281
-8.61252
-8.10059
-23.3294
-23.411
-23.9356
-24.396
-23.9412
-22.0255
-19.206
-16.6249
-14.8646
-13.8555
-13.273
-12.7979
-12.2993
-11.7775
-11.2335
-10.6696
-10.0895
-9.49896
-8.90597
-8.32097
-7.75608
-23.3309
-23.4158
-23.9512
-24.4391
-24.0346
-22.1763
-19.3879
-16.797
-15.0042
-13.9639
-13.3588
-12.8623
-12.3379
-11.7851
-11.2042
-10.5967
-9.96597
-9.31781
-8.66161
-8.0105
-7.38099
-23.3324
-23.4207
-23.9667
-24.4822
-24.1286
-22.3299
-19.5778
-16.9842
-15.1645
-14.0962
-13.4699
-12.9529
-12.4032
-11.8192
-11.2
-10.5458
-9.85874
-9.14424
-8.41244
-7.67968
-6.96887
-23.334
-23.4255
-23.9823
-24.5254
-24.2232
-22.4864
-19.7758
-17.1871
-15.3474
-14.2553
-13.6101
-13.0745
-12.5009
-11.8866
-11.2288
-10.5257
-9.77735
-8.98697
-8.16418
-7.32818
-6.51088
-23.3355
-23.4304
-23.9979
-24.5687
-24.3184
-22.6457
-19.9822
-17.4064
-15.5545
-14.444
-13.7833
-13.2317
-12.637
-11.9948
-11.3002
-10.5484
-9.73547
-8.86024
-7.92837
-6.95906
-5.99498
-23.337
-23.4352
-24.0135
-24.612
-24.4141
-22.8078
-20.1969
-17.6426
-15.7874
-14.6652
-13.9933
-13.4294
-12.8179
-12.1524
-11.4255
-10.6287
-9.75223
-8.78687
-7.72781
-6.58501
-5.40637
-23.3385
-23.44
-24.0291
-24.6553
-24.5104
-22.9727
-20.42
-17.896
-16.0472
-14.9209
-14.2432
-13.6721
-13.0496
-12.3678
-11.6169
-10.784
-9.85269
-8.80176
-7.60615
-6.24474
-4.73623
-23.34
-23.4449
-24.0446
-24.6987
-24.6071
-23.1403
-20.6515
-18.1669
-16.3349
-15.2131
-14.5356
-13.9632
-13.3372
-12.6484
-11.8854
-11.032
-10.0658
-8.95296
-7.64068
-6.04302
-4.03647
-12.2456
-12.1323
-12.0247
-11.9231
-11.8278
-11.7391
-11.6573
-11.5828
-11.5158
-11.4566
-11.4053
-11.3623
-11.3278
-11.3018
-11.2846
-11.2763
-11.2771
-11.287
-11.3061
-11.3345
-11.3721
-11.4189
-11.4749
-11.5398
-11.6136
-11.6959
-11.7865
-11.8847
-11.9902
-12.1022
-12.2197
-12.3418
-12.3921
-12.5115
-12.6301
-12.7463
-12.8575
-12.9607
-13.0523
-13.1282
-13.1833
-13.2117
-13.2062
-13.0803
-12.9784
-12.8118
-12.5651
-12.2184
-11.7455
-11.11
-10.2589
-9.1065
-7.49549
-5.06708
-12.1613
-12.0442
-11.933
-11.8283
-11.7303
-11.6394
-11.5559
-11.4802
-11.4126
-11.3534
-11.3028
-11.261
-11.2284
-11.2052
-11.1915
-11.1876
-11.1936
-11.2096
-11.2358
-11.2723
-11.3191
-11.3763
-11.444
-11.522
-11.6102
-11.7086
-11.8168
-11.9345
-12.0614
-12.1968
-12.3401
-12.4903
-12.5643
-12.716
-12.8698
-13.0241
-13.1767
-13.3247
-13.4647
-13.5929
-13.7044
-13.7935
-13.8535
-13.7835
-13.7558
-13.6691
-13.5093
-13.2578
-12.891
-12.3778
-11.6759
-10.7271
-9.45537
-7.81244
-12.0719
-11.9505
-11.8355
-11.7273
-11.6263
-11.5329
-11.4474
-11.3703
-11.3018
-11.2423
-11.1921
-11.1514
-11.1206
-11.0999
-11.0896
-11.0898
-11.1009
-11.1229
-11.1561
-11.2006
-11.2567
-11.3243
-11.4037
-11.4948
-11.5976
-11.7122
-11.8384
-11.9761
-12.1249
-12.2844
-12.4542
-12.6335
-12.7328
-12.9182
-13.1089
-13.3035
-13.5
-13.6958
-13.8878
-14.0726
-14.2455
-14.4016
-14.5345
-14.5289
-14.5859
-14.5925
-14.536
-14.4008
-14.168
-13.8147
-13.3144
-12.6407
-11.7823
-10.7917
-11.9771
-11.8511
-11.7319
-11.6198
-11.5155
-11.4192
-11.3314
-11.2525
-11.1829
-11.1228
-11.0727
-11.0329
-11.0037
-10.9853
-10.9781
-10.9823
-10.9982
-11.0261
-11.0661
-11.1186
-11.1837
-11.2617
-11.3527
-11.4569
-11.5744
-11.7053
-11.8497
-12.0075
-12.1785
-12.3627
-12.5596
-12.7688
-12.8948
-13.1153
-13.3444
-13.5812
-13.8238
-14.0702
-14.3176
-14.5628
-14.802
-15.0306
-15.2431
-15.31
-15.4614
-15.5728
-15.6338
-15.6321
-15.554
-15.385
-15.1119
-14.7293
-14.2512
-13.7333
-11.8766
-11.7455
-11.6216
-11.5054
-11.3973
-11.2978
-11.2073
-11.1263
-11.0552
-10.9943
-10.944
-10.9048
-10.8768
-10.8605
-10.8562
-10.8641
-10.8847
-10.9182
-10.9649
-11.0251
-11.0991
-11.1872
-11.2897
-11.4069
-11.539
-11.6862
-11.8488
-12.0268
-12.2203
-12.4294
-12.6539
-12.8936
-13.0475
-13.3041
-13.573
-13.8535
-14.1443
-14.4436
-14.7492
-15.0584
-15.3681
-15.6742
-15.9722
-16.1186
-16.3727
-16.5986
-16.7882
-16.9326
-17.0227
-17.0504
-17.0114
-16.9097
-16.7645
-16.6168
-11.7701
-11.6335
-11.5045
-11.3836
-11.2713
-11.1682
-11.0746
-10.9911
-10.9182
-10.8561
-10.8054
-10.7663
-10.7394
-10.7248
-10.7231
-10.7345
-10.7594
-10.7983
-10.8513
-10.919
-11.0016
-11.0997
-11.2135
-11.3434
-11.4899
-11.6532
-11.8338
-12.032
-12.248
-12.4821
-12.7343
-13.0049
-13.188
-13.4814
-13.7909
-14.1164
-14.4569
-14.8111
-15.1774
-15.5536
-15.9372
-16.3252
-16.7136
-16.9458
-17.3093
-17.6572
-17.9838
-18.2827
-18.5486
-18.7776
-18.9701
-19.133
-19.2832
-19.4487
-11.6572
-11.5146
-11.3799
-11.2539
-11.137
-11.0298
-10.9328
-10.8465
-10.7713
-10.7077
-10.6561
-10.617
-10.5906
-10.5775
-10.5781
-10.5926
-10.6216
-10.6654
-10.7245
-10.7993
-10.8902
-10.9978
-11.1225
-11.2649
-11.4254
-11.6046
-11.8029
-12.021
-12.2592
-12.5182
-12.7982
-13.0996
-13.3129
-13.6435
-13.9944
-14.3658
-14.7571
-15.1677
-15.5965
-16.0421
-16.5025
-16.9755
-17.4584
-17.7816
-18.2597
-18.7352
-19.2043
-19.663
-20.1082
-20.5388
-20.9568
-21.3692
-21.7889
-22.2344
-11.5376
-11.3884
-11.2476
-11.1159
-10.9939
-10.8822
-10.7813
-10.6916
-10.6138
-10.5483
-10.4955
-10.4559
-10.4299
-10.4179
-10.4203
-10.4377
-10.4703
-10.5187
-10.5834
-10.6649
-10.7637
-10.8804
-11.0156
-11.1699
-11.3439
-11.5385
-11.7541
-11.9916
-12.2518
-12.5352
-12.8426
-13.1747
-13.4189
-13.7868
-14.1792
-14.5969
-15.0398
-15.5078
-16.0004
-16.5169
-17.0562
-17.6169
-18.1972
-18.6157
-19.2121
-19.8191
-20.4345
-21.0558
-21.6817
-22.3121
-22.9496
-23.5998
-24.2719
-24.9775
-11.4109
-11.2546
-11.1071
-10.9692
-10.8416
-10.7248
-10.6194
-10.5261
-10.4453
-10.3774
-10.323
-10.2825
-10.2564
-10.2451
-10.2491
-10.2688
-10.3046
-10.3573
-10.4271
-10.5148
-10.621
-10.7462
-10.8913
-11.057
-11.2439
-11.4532
-11.6855
-11.9418
-12.2231
-12.5304
-12.8646
-13.2268
-13.5024
-13.9073
-14.3411
-14.8051
-15.2997
-15.8255
-16.3826
-16.971
-17.5905
-18.2404
-18.9201
-19.4371
-20.1543
-20.8954
-21.6593
-22.4448
-23.2513
-24.0794
-24.9313
-25.811
-26.7243
-27.6782
-11.2769
-11.1126
-10.9578
-10.8131
-10.6793
-10.557
-10.4467
-10.3492
-10.2649
-10.1943
-10.1379
-10.0961
-10.0695
-10.0585
-10.0635
-10.0851
-10.1238
-10.1801
-10.2546
-10.348
-10.4609
-10.5941
-10.7484
-10.9246
-11.1238
-11.3469
-11.595
-11.8692
-12.1709
-12.5011
-12.8612
-13.2526
-13.56
-14.0011
-14.4756
-14.9853
-15.5313
-16.1147
-16.7363
-17.3969
-18.097
-18.8371
-19.6171
-20.2351
-21.0746
-21.9512
-22.8648
-23.8149
-24.8016
-25.8255
-26.8881
-27.9919
-29.14
-30.3358
-11.1349
-10.9622
-10.7993
-10.6472
-10.5066
-10.3782
-10.2625
-10.1603
-10.072
-9.99822
-9.93937
-9.89595
-9.86843
-9.85728
-9.86298
-9.88603
-9.92699
-9.98643
-10.065
-10.1634
-10.2823
-10.4227
-10.5854
-10.7715
-10.9819
-11.2179
-11.4808
-11.7719
-12.0926
-12.4446
-12.8294
-13.2488
-13.5879
-14.064
-14.5782
-15.1326
-15.729
-16.3691
-17.0545
-17.7868
-18.5673
-19.3973
-20.2778
-20.9985
-21.9608
-22.9734
-24.037
-25.1518
-26.3181
-27.5364
-28.8075
-30.1324
-31.512
-32.947
-10.9847
-10.8027
-10.6311
-10.4709
-10.3229
-10.1877
-10.0662
-9.95874
-9.86605
-9.7886
-9.72688
-9.68136
-9.6525
-9.64076
-9.64665
-9.67066
-9.71337
-9.77539
-9.85738
-9.9601
-10.0844
-10.2311
-10.4013
-10.5961
-10.8168
-11.0646
-11.341
-11.6476
-11.9861
-12.3583
-12.7662
-13.2119
-13.5824
-14.0921
-14.6443
-15.2418
-15.8871
-16.5824
-17.3303
-18.1329
-18.9927
-19.9117
-20.892
-21.7162
-22.801
-23.9494
-25.1628
-26.442
-27.7875
-29.1996
-30.6783
-32.2234
-33.8339
-35.5082
-10.8258
-10.6336
-10.4526
-10.2836
-10.1275
-9.98501
-9.85692
-9.74381
-9.64623
-9.5647
-9.49968
-9.45163
-9.42101
-9.40825
-9.41385
-9.43832
-9.48222
-9.5462
-9.63095
-9.73725
-9.86599
-10.0182
-10.1949
-10.3974
-10.627
-10.8852
-11.1737
-11.4943
-11.8489
-12.2396
-12.6687
-13.1388
-13.54
-14.081
-14.6692
-15.3077
-15.9996
-16.7481
-17.5562
-18.4272
-19.3642
-20.3705
-21.4488
-22.3769
-23.583
-24.8663
-26.2288
-27.6719
-29.1962
-30.802
-32.4886
-34.2546
-36.0975
-38.0137
-10.6577
-10.4545
-10.2631
-10.0845
-9.91961
-9.76923
-9.63408
-9.51477
-9.41184
-9.32579
-9.25707
-9.20609
-9.17329
-9.15908
-9.16392
-9.18833
-9.23285
-9.29815
-9.38493
-9.49401
-9.62634
-9.78297
-9.96508
-10.174
-10.4112
-10.6784
-10.9774
-11.3101
-11.6788
-12.086
-12.5341
-13.0261
-13.457
-14.0269
-14.6483
-15.3251
-16.0608
-16.8595
-17.725
-18.6615
-19.673
-20.7638
-21.9377
-22.969
-24.2946
-25.7112
-27.2217
-28.828
-30.5311
-32.3311
-34.2268
-36.216
-38.2947
-40.4574
-10.4799
-10.2646
-10.062
-9.87298
-9.69859
-9.53964
-9.39685
-9.27084
-9.16213
-9.07116
-8.99834
-8.94406
-8.90868
-8.8926
-8.89623
-8.92006
-8.96463
-9.03059
-9.11865
-9.22967
-9.36462
-9.52461
-9.71091
-9.92492
-10.1683
-10.4427
-10.7503
-11.0933
-11.474
-11.8951
-12.3597
-12.8708
-13.33
-13.9258
-14.5773
-15.2889
-16.065
-16.9102
-17.8293
-18.8275
-19.9098
-21.0815
-22.3475
-23.4807
-24.923
-26.4706
-28.1275
-29.8961
-31.7778
-33.7729
-35.8799
-38.0956
-40.415
-42.8308
-10.2917
-10.0633
-9.84846
-9.6482
-9.46355
-9.29537
-9.14439
-9.01121
-8.89629
-8.80004
-8.72279
-8.66486
-8.62655
-8.60821
-8.6102
-8.63296
-8.677
-8.74295
-8.83153
-8.9436
-9.08016
-9.24237
-9.43155
-9.6492
-9.89704
-10.177
-10.4912
-10.8421
-11.2323
-11.6648
-12.1429
-12.67
-13.1557
-13.7739
-14.4517
-15.1942
-16.0064
-16.8938
-17.862
-18.9172
-20.0655
-21.3134
-22.6671
-23.9001
-25.4553
-27.1309
-28.9317
-30.8612
-32.9215
-35.1129
-37.4341
-39.881
-42.4476
-45.125
-10.0925
-9.84986
-9.62169
-9.40923
-9.21354
-9.03548
-8.87579
-8.73499
-8.61351
-8.51166
-8.42969
-8.36783
-8.32631
-8.30536
-8.30531
-8.32652
-8.36948
-8.43476
-8.52308
-8.63529
-8.77241
-8.93564
-9.12634
-9.34607
-9.59666
-9.88014
-10.1988
-10.5552
-10.9523
-11.3932
-11.8815
-12.4211
-12.9311
-13.5677
-14.2675
-15.0362
-15.8796
-16.8039
-17.8158
-18.9224
-20.1309
-21.4492
-22.8849
-24.2145
-25.8778
-27.6773
-29.6189
-31.7073
-33.9457
-36.3348
-38.8735
-41.5573
-44.3791
-47.3284
-9.88143
-9.62325
-9.38065
-9.15502
-8.94748
-8.75891
-8.59
-8.44122
-8.31289
-8.20521
-8.11831
-8.05233
-8.00735
-7.98353
-7.98109
-8.00033
-8.04166
-8.10563
-8.19291
-8.30435
-8.44095
-8.60394
-8.79472
-9.01491
-9.26639
-9.55132
-9.87209
-10.2314
-10.6324
-11.0785
-11.5735
-12.1216
-12.6534
-13.3038
-14.0207
-14.8104
-15.6793
-16.6345
-17.6836
-18.8348
-20.0968
-21.4785
-22.9891
-24.4111
-26.1765
-28.0944
-30.1725
-32.4172
-34.8326
-37.4208
-40.1808
-43.108
-46.1946
-49.4282
-9.65773
-9.38251
-9.12422
-8.88439
-8.6642
-8.46452
-8.28596
-8.1289
-7.99353
-7.87989
-7.78798
-7.71776
-7.66919
-7.6423
-7.6372
-7.65409
-7.69331
-7.75534
-7.84082
-7.95056
-8.08556
-8.24703
-8.43641
-8.65535
-8.90579
-9.18995
-9.51036
-9.86984
-10.2717
-10.7194
-11.2172
-11.7695
-12.3202
-12.9794
-13.7081
-14.5128
-15.4007
-16.3798
-17.4588
-18.6468
-19.9539
-21.3906
-22.9677
-24.4765
-26.3363
-28.3657
-30.5748
-32.9716
-35.5623
-38.3503
-41.3355
-44.5137
-47.8759
-51.4085
-9.42029
-9.12639
-8.85105
-8.59594
-8.36229
-8.15093
-7.9624
-7.7969
-7.65443
-7.53485
-7.43795
-7.36352
-7.31134
-7.28129
-7.27333
-7.28757
-7.32425
-7.38377
-7.46671
-7.57383
-7.70612
-7.86479
-8.05125
-8.26718
-8.51457
-8.79568
-9.11312
-9.46982
-9.86917
-10.3149
-10.8114
-11.3634
-11.9294
-12.5921
-13.3264
-14.1396
-15.0393
-16.0346
-17.1349
-18.3508
-19.6935
-21.1752
-22.8087
-24.3971
-26.3417
-28.4739
-30.8062
-33.3495
-36.1123
-39.1001
-42.3143
-45.7513
-49.4018
-53.2502
-9.16784
-8.85341
-8.55952
-8.288
-8.04012
-7.81664
-7.61792
-7.44397
-7.29453
-7.1692
-7.06754
-6.98908
-6.9334
-6.90021
-6.88931
-6.90068
-6.93444
-6.99092
-7.07062
-7.17425
-7.30275
-7.4573
-7.63931
-7.85045
-8.09272
-8.36843
-8.68022
-9.03108
-9.42451
-9.86441
-10.3552
-10.9019
-11.4795
-12.1398
-12.8733
-13.6877
-14.5914
-15.5941
-16.7063
-17.9397
-19.3069
-20.822
-22.4997
-24.1588
-26.1763
-28.4001
-30.8457
-33.5276
-36.4574
-39.6437
-43.0902
-46.7944
-50.7471
-54.9311
-8.89886
-8.56179
-8.24769
-7.95859
-7.69578
-7.45986
-7.25096
-7.06879
-6.91274
-6.78208
-6.67606
-6.59393
-6.53505
-6.49888
-6.48508
-6.49345
-6.52402
-6.57699
-6.6528
-6.75208
-6.87573
-7.02488
-7.2009
-7.40546
-7.64053
-7.90843
-8.21181
-8.55371
-8.93766
-9.36765
-9.84821
-10.3845
-10.9695
-11.6212
-12.347
-13.1548
-14.0538
-15.0543
-16.1677
-17.407
-18.7862
-20.3212
-22.0289
-23.7475
-25.8234
-28.1246
-30.6707
-33.48
-36.569
-39.9502
-43.6308
-47.6108
-51.8814
-56.4238
-8.61146
-8.24929
-7.91317
-7.60532
-7.32699
-7.07854
-6.85975
-6.66987
-6.50786
-6.37258
-6.26288
-6.17768
-6.11606
-6.07725
-6.0607
-6.06607
-6.09324
-6.14232
-6.21365
-6.30779
-6.42556
-6.56804
-6.73656
-6.93275
-7.15853
-7.41621
-7.7084
-8.03815
-8.409
-8.82495
-9.29058
-9.81116
-10.399
-11.0356
-11.7462
-12.5392
-13.4242
-14.412
-15.5151
-16.7474
-18.1244
-19.6638
-21.3847
-23.1492
-25.2657
-27.6265
-30.2561
-33.1781
-36.4145
-39.9839
-43.8984
-48.162
-52.7674
-57.6947
-8.3033
-7.91316
-7.553
-7.22527
-6.93104
-6.67032
-6.4423
-6.24565
-6.07873
-5.93987
-5.82746
-5.74004
-5.67636
-5.63541
-5.61642
-5.6189
-5.64259
-5.68747
-5.7538
-5.84205
-5.95297
-6.08757
-6.24712
-6.43317
-6.64761
-6.89265
-7.17089
-7.48531
-7.83939
-8.23714
-8.68308
-9.18251
-9.76845
-10.3831
-11.0708
-11.8403
-12.7012
-13.6653
-14.7453
-15.9565
-17.3154
-18.8416
-20.5566
-22.3504
-24.486
-26.8846
-29.5758
-32.5901
-35.9571
-39.7029
-43.8476
-48.4009
-53.3592
-58.7019
-7.97132
-7.54979
-7.1634
-6.81477
-6.50466
-6.2324
-5.99638
-5.79441
-5.62411
-5.48314
-5.36934
-5.28083
-5.21602
-5.17361
-5.15265
-5.15247
-5.17267
-5.21314
-5.27402
-5.35571
-5.45887
-5.58444
-5.73359
-5.90781
-6.10888
-6.33895
-6.60051
-6.89644
-7.23015
-7.60551
-8.027
-8.49981
-9.07875
-9.6645
-10.3215
-11.0583
-11.8849
-12.8133
-13.8569
-15.0315
-16.355
-17.8483
-19.5353
-21.3387
-23.4679
-25.8769
-28.6019
-31.6815
-35.1547
-39.0585
-43.4237
-48.2698
-53.5994
-59.3929
-7.61157
-7.15451
-6.73951
-6.36928
-6.04389
-5.76159
-5.51953
-5.31441
-5.14286
-5.00173
-4.88827
-4.80011
-4.73531
-4.69234
-4.67002
-4.66752
-4.68435
-4.72027
-4.77534
-4.84987
-4.94444
-5.05988
-5.19729
-5.35805
-5.54383
-5.75666
-5.99889
-6.27328
-6.58307
-6.93198
-7.32431
-7.76509
-8.33177
-8.88169
-9.4999
-10.1948
-10.9764
-11.8569
-12.8498
-13.9714
-15.2407
-16.6796
-18.3139
-20.1037
-22.1962
-24.5826
-27.3062
-30.4152
-33.9606
-37.9936
-42.5608
-47.6966
-53.4149
-59.6999
-7.21872
-6.72104
-6.275
-5.88307
-5.54399
-5.25422
-5.00915
-4.80393
-4.63396
-4.4952
-4.38421
-4.29817
-4.23479
-4.19231
-4.16937
-4.16504
-4.17869
-4.21001
-4.25899
-4.32584
-4.41105
-4.51537
-4.63979
-4.78556
-4.95423
-5.14767
-5.36807
-5.61799
-5.90046
-6.21899
-6.57763
-6.98111
-7.53017
-8.03741
-8.60887
-9.25262
-9.97855
-10.7985
-11.7261
-12.7778
-13.9727
-15.3338
-16.8883
-18.6378
-20.6585
-22.9826
-25.661
-28.7526
-32.3229
-36.4421
-41.1786
-46.5903
-52.7108
-59.5339
-6.78533
-6.24068
-5.76137
-5.34885
-4.9993
-4.70627
-4.4626
-4.26143
-4.09672
-3.96345
-3.85751
-3.77565
-3.71531
-3.67452
-3.65184
-3.64622
-3.65698
-3.68374
-3.7264
-3.78513
-3.86032
-3.95262
-4.0629
-4.19228
-4.34215
-4.51421
-4.71043
-4.93314
-5.18512
-5.46957
-5.79021
-6.15141
-6.67748
-7.13541
-7.65241
-8.23599
-8.89558
-9.64252
-10.4901
-11.4543
-12.5543
-13.8131
-15.2585
-16.9374
-18.8466
-21.062
-23.6416
-26.6558
-30.1869
-34.3286
-39.1801
-44.8351
-51.3615
-58.7747
-6.30064
-5.701
-5.18712
-4.75744
-4.40327
-4.11351
-3.87746
-3.6858
-3.53094
-3.40688
-3.30895
-3.23359
-3.17805
-3.1403
-3.11882
-3.11253
-3.12074
-3.14301
-3.17923
-3.22946
-3.29405
-3.37353
-3.46865
-3.58038
-3.70994
-3.8588
-4.02871
-4.22173
-4.4403
-4.68728
-4.96596
-5.28025
-5.77805
-6.18047
-6.6357
-7.1505
-7.73357
-8.39543
-9.14854
-10.0081
-10.9922
-12.1235
-13.4292
-15.0046
-16.7585
-18.8121
-21.2293
-24.0911
-27.4975
-31.5699
-36.4486
-42.2813
-49.196
-57.2541
-5.74806
-5.08346
-4.53642
-4.09747
-3.74871
-3.47199
-3.25201
-3.07676
-2.93719
-2.82657
-2.73991
-2.67352
-2.62465
-2.5913
-2.57199
-2.56569
-2.57171
-2.58964
-2.61931
-2.66077
-2.71427
-2.78024
-2.85932
-2.95229
-3.0602
-3.18428
-3.326
-3.48711
-3.6697
-3.87617
-4.10936
-4.3726
-4.83707
-5.17831
-5.56507
-6.00315
-6.50025
-7.06572
-7.71072
-8.44899
-9.29719
-10.2761
-11.4115
-12.8485
-14.4006
-16.2341
-18.416
-21.0347
-24.206
-28.0804
-32.8485
-38.7364
-45.9754
-54.7261
-5.09992
-4.35917
-3.7876
-3.35558
-3.02872
-2.77898
-2.58594
-2.43531
-2.31715
-2.2245
-2.15246
-2.09753
-2.05717
-2.02955
-2.01335
-2.00767
-2.01187
-2.0256
-2.04869
-2.08115
-2.12316
-2.17507
-2.23735
-2.31065
-2.39578
-2.49373
-2.60568
-2.73301
-2.87741
-3.0408
-3.22547
-3.4341
-3.86049
-4.13561
-4.44802
-4.80237
-5.20508
-5.66401
-6.18859
-6.7905
-7.48407
-8.28734
-9.22302
-10.4864
-11.7898
-13.3425
-15.2097
-17.4813
-20.2816
-23.7847
-28.2333
-33.9561
-41.3563
-50.8087
-4.30416
-3.48127
-2.91209
-2.51818
-2.23869
-2.03447
-1.88137
-1.76438
-1.67393
-1.60372
-1.54949
-1.50832
-1.47812
-1.45742
-1.44517
-1.44066
-1.44339
-1.45307
-1.46955
-1.49285
-1.52307
-1.56047
-1.60538
-1.65827
-1.71973
-1.79048
-1.87137
-1.96343
-2.06787
-2.18611
-2.31981
-2.47097
-2.85496
-3.05985
-3.29303
-3.5578
-3.85907
-4.20288
-4.59654
-5.04913
-5.57187
-6.17904
-6.88877
-7.94502
-8.95563
-10.1685
-11.6407
-13.4542
-15.7284
-18.6424
-22.4728
-27.6526
-34.8374
-44.8601
-3.24553
-2.37298
-1.87744
-1.57687
-1.3803
-1.24353
-1.14401
-1.06936
-1.01233
-0.968412
-0.934673
-0.909136
-0.890432
-0.877602
-0.869972
-0.867074
-0.868596
-0.874347
-0.884235
-0.898255
-0.916475
-0.939039
-0.966156
-0.998106
-1.03525
-1.07801
-1.12692
-1.1826
-1.24579
-1.31736
-1.39831
-1.48987
-1.8277
-1.95927
-2.10948
-2.28018
-2.47458
-2.69666
-2.95124
-3.24435
-3.58348
-3.97819
-4.44076
-5.26042
-5.94075
-6.76226
-7.76673
-9.01663
-10.6068
-12.6886
-15.5184
-19.5616
-25.716
-35.676
-1.61308
-0.922377
-0.665757
-0.541101
-0.46758
-0.418773
-0.384057
-0.358333
-0.338822
-0.323863
-0.312405
-0.303748
-0.297412
-0.293065
-0.290473
-0.289474
-0.289961
-0.291869
-0.295164
-0.299844
-0.305931
-0.313474
-0.322542
-0.333228
-0.345652
-0.35996
-0.376328
-0.394962
-0.416114
-0.440072
-0.467179
-0.497843
-0.786383
-0.842598
-0.907402
-0.981092
-1.06506
-1.16103
-1.27113
-1.39799
-1.5449
-1.7161
-1.91704
-2.47725
-2.80024
-3.19235
-3.674
-4.27722
-5.052
-6.08147
-7.51627
-9.66428
-13.2776
-20.729
-1.1165
-0.600312
-0.546971
-0.535802
-0.538784
-0.548409
-0.56165
-0.576995
-0.593569
-0.610817
-0.62835
-0.645887
-0.663208
-0.680139
-0.696498
-0.712262
-0.727344
-0.741568
-0.754919
-0.767348
-0.778821
-0.789307
-0.798788
-0.807253
-0.814699
-0.821125
-0.826541
-0.83096
-0.834395
-0.836869
-0.838404
-0.839026
-0.838763
-0.837644
-0.835701
-0.832965
-0.82947
-0.825249
-0.820337
-0.814766
-0.808572
-0.801789
-0.794449
-0.786588
-0.778237
-0.769427
-0.760193
-0.750565
-0.740572
-0.730245
-0.719613
-0.708702
-0.697541
-0.686156
-0.674573
-0.662816
-0.650909
-0.638874
-0.626736
-0.614515
-0.602229
-0.589901
-0.57755
-0.565192
-0.552846
-0.540528
-0.528254
-0.516038
-0.503895
-0.491839
-0.479882
-0.468038
-0.456315
-0.444727
-0.433283
-0.421991
-0.410862
-0.399902
-0.389119
-0.37852
-0.368111
-0.357897
-0.347883
-0.338074
-0.328473
-0.319082
-0.309905
-0.300944
-0.292198
-0.283671
-0.275362
-0.26727
-0.259396
-0.251738
-0.244294
-0.237063
-0.230043
-0.22323
-0.216623
-0.210217
-0.204009
-0.197997
-0.192175
-0.186539
-0.181087
-0.175813
-0.170712
-0.165759
-0.320851
-0.31168
-0.302808
-0.294247
-0.285977
-0.27799
-0.270268
-0.262819
-0.255625
-0.248679
-0.241969
-0.23549
-0.229238
-0.2232
-0.217371
-0.211736
-0.2063
-0.201052
-0.195983
-0.191082
-0.186354
-0.181787
-0.177376
-0.173112
-0.168993
-0.165016
-0.161173
-0.157458
-0.153868
-0.1504
-0.147049
-0.14381
-0.140676
-0.13765
-0.134725
-0.131898
-0.129163
-0.12652
-0.123966
-0.121497
-0.11911
-0.116802
-0.114572
-0.112417
-0.110335
-0.10832
-0.106376
-0.104498
-0.102684
-0.100931
-0.0992404
-0.0976089
-0.0960349
-0.0945162
-0.0930523
-0.0916427
-0.0902854
-0.0889793
-0.0877222
-0.0865156
-0.0853575
-0.084247
-0.0831824
-0.0821654
-0.0811943
-0.0802686
-0.0793877
-0.0785519
-0.0777613
-0.0770157
-0.0763147
-0.075659
-0.0750493
-0.0744858
-0.0739692
-0.0735
-0.0730802
-0.0727106
-0.0723929
-0.0721288
-0.0719207
-0.0717714
-0.0716837
-0.0716614
-0.0717088
-0.0718308
-0.0720336
-0.0723242
-0.0727117
-0.0732056
-0.0738187
-0.0745665
-0.075469
-0.0765481
-0.0778352
-0.0793696
-0.0812043
-0.0834087
-0.0860786
-0.0893549
-0.093447
-0.0986927
-0.105645
-0.115368
-0.130193
-0.15693
-0.230227
-6.10654
-5.17879
-4.86878
-4.80096
-4.83849
-4.92986
-5.0513
-5.19068
-5.34089
-5.49661
-5.65488
-5.81321
-5.96922
-6.12184
-6.2697
-6.4119
-6.54714
-6.67559
-6.79565
-6.90758
-7.01088
-7.10511
-7.19063
-7.267
-7.33382
-7.39146
-7.44056
-7.48029
-7.51118
-7.53341
-7.54699
-7.55254
-7.55012
-7.53981
-7.52265
-7.49778
-7.46614
-7.42804
-7.38377
-7.33376
-7.27815
-7.21704
-7.15074
-7.07976
-7.00473
-6.92539
-6.84241
-6.75536
-6.66537
-6.57255
-6.47677
-6.37842
-6.27809
-6.17559
-6.07109
-5.96529
-5.8581
-5.7499
-5.64048
-5.53074
-5.42
-5.30902
-5.19783
-5.08658
-4.97556
-4.86468
-4.75406
-4.64394
-4.53468
-4.42616
-4.31875
-4.21203
-4.10651
-4.0021
-3.89919
-3.79755
-3.69737
-3.59873
-3.50176
-3.40619
-3.3125
-3.22066
-3.1306
-3.04232
-2.95582
-2.87131
-2.78872
-2.70806
-2.62928
-2.55261
-2.47781
-2.40501
-2.33412
-2.26528
-2.19818
-2.13316
-2.07004
-2.00862
-1.94921
-1.89157
-1.83566
-1.78165
-1.72922
-1.67854
-1.62944
-1.58198
-1.53608
-1.49165
-1.60382
-1.55798
-1.51363
-1.47084
-1.4295
-1.38958
-1.35098
-1.31375
-1.27779
-1.24307
-1.20953
-1.17715
-1.14589
-1.11572
-1.08658
-1.05841
-1.03125
-1.00501
-0.979673
-0.955178
-0.931546
-0.908719
-0.88667
-0.865359
-0.844771
-0.824891
-0.805683
-0.787113
-0.769168
-0.751836
-0.735085
-0.718896
-0.703231
-0.688107
-0.673487
-0.659354
-0.645686
-0.632473
-0.619707
-0.607366
-0.595431
-0.583894
-0.57275
-0.561978
-0.551569
-0.5415
-0.531782
-0.522395
-0.513328
-0.504564
-0.496113
-0.487958
-0.480089
-0.472498
-0.46518
-0.458134
-0.451349
-0.44482
-0.438536
-0.432504
-0.426715
-0.421163
-0.415841
-0.410757
-0.405902
-0.401274
-0.39687
-0.392691
-0.388739
-0.38501
-0.381505
-0.378226
-0.375177
-0.372359
-0.369776
-0.367428
-0.365328
-0.363479
-0.361888
-0.360565
-0.359522
-0.358771
-0.358329
-0.358212
-0.358444
-0.359047
-0.360053
-0.361497
-0.363422
-0.365878
-0.368926
-0.372643
-0.377129
-0.38249
-0.388882
-0.396496
-0.405591
-0.416505
-0.429699
-0.44585
-0.46595
-0.49157
-0.525212
-0.571475
-0.639478
-0.75004
-0.954756
-9.86474
-9.2575
-9.00275
-8.98021
-9.09278
-9.28484
-9.52517
-9.79516
-10.0829
-10.3803
-10.6816
-10.9821
-11.2785
-11.5679
-11.8481
-12.1172
-12.3735
-12.616
-12.8435
-13.0552
-13.2506
-13.4291
-13.5904
-13.7343
-13.8608
-13.97
-14.0619
-14.1368
-14.195
-14.2368
-14.2626
-14.2728
-14.268
-14.2487
-14.2153
-14.1684
-14.1086
-14.0364
-13.9525
-13.8574
-13.7518
-13.6361
-13.5109
-13.3769
-13.2346
-13.0844
-12.9271
-12.7631
-12.5929
-12.417
-12.2359
-12.0502
-11.8601
-11.6663
-11.4691
-11.269
-11.0663
-10.8615
-10.6549
-10.4469
-10.2378
-10.0281
-9.81789
-9.60762
-9.3976
-9.18798
-8.97916
-8.77132
-8.5648
-8.35967
-8.15628
-7.9548
-7.75541
-7.55831
-7.36366
-7.17161
-6.98232
-6.79594
-6.61256
-6.43232
-6.25531
-6.08163
-5.91135
-5.74457
-5.58132
-5.42166
-5.26564
-5.11329
-4.96461
-4.81966
-4.67841
-4.54086
-4.40702
-4.27686
-4.15033
-4.02744
-3.90814
-3.79235
-3.68007
-3.57122
-3.46574
-3.36358
-3.26466
-3.1689
-3.07627
-2.98667
-2.9
-2.81621
-2.88536
-2.80288
-2.72311
-2.64612
-2.57176
-2.49994
-2.4305
-2.36352
-2.29884
-2.23639
-2.17605
-2.1178
-2.06158
-2.0073
-1.95489
-1.90422
-1.85535
-1.80816
-1.76258
-1.71852
-1.67601
-1.63495
-1.59529
-1.55696
-1.51992
-1.48416
-1.44961
-1.41621
-1.38393
-1.35275
-1.32262
-1.29349
-1.26532
-1.23811
-1.21181
-1.18639
-1.1618
-1.13803
-1.11506
-1.09287
-1.07139
-1.05064
-1.03059
-1.01121
-0.992488
-0.974373
-0.956891
-0.940002
-0.923691
-0.907925
-0.892721
-0.878048
-0.863892
-0.850233
-0.837068
-0.82439
-0.812183
-0.800435
-0.789127
-0.778275
-0.767857
-0.757868
-0.748291
-0.739142
-0.730405
-0.722077
-0.714151
-0.706629
-0.699514
-0.692803
-0.686492
-0.680589
-0.675098
-0.670022
-0.665368
-0.661137
-0.65735
-0.654014
-0.651142
-0.64875
-0.64686
-0.645495
-0.644681
-0.644452
-0.644844
-0.645903
-0.64768
-0.650238
-0.653657
-0.658018
-0.663433
-0.670037
-0.678
-0.687511
-0.698835
-0.712303
-0.728356
-0.747563
-0.770693
-0.798849
-0.833612
-0.877407
-0.933855
-1.0091
-1.11358
-1.26566
-1.49346
-13.2808
-13.0022
-12.9348
-13.0439
-13.2787
-13.5982
-13.9736
-14.3843
-14.817
-15.261
-15.709
-16.155
-16.594
-17.0223
-17.4367
-17.834
-18.2127
-18.5705
-18.906
-19.2179
-19.5057
-19.7685
-20.0059
-20.2178
-20.4037
-20.5642
-20.6992
-20.8088
-20.8939
-20.955
-20.9924
-21.0071
-20.9994
-20.9701
-20.9204
-20.851
-20.7622
-20.6556
-20.5315
-20.391
-20.2348
-20.0639
-19.8792
-19.6815
-19.4716
-19.2504
-19.0184
-18.7764
-18.5257