/*--------------------------------*- C++ -*----------------------------------*\
  =========                 |
  \\      /  F ield         | OpenFOAM: The Open Source CFD Toolbox
   \\    /   O peration     | Website:  https://openfoam.org
    \\  /    A nd           | Version:  7
     \\/     M anipulation  |
\*---------------------------------------------------------------------------*/
FoamFile
{
    version     2.0;
    format      ascii;
    class       volScalarField;
    location    "0/dielectric";
    object      voltDextMag;
}
// * * * * * * * * * * * * * * * * * * * * * * * * * * * * * * * * * * * * * //

dimensions      [1 2 -3 0 0 -1 0];

internalField   nonuniform List<scalar> 
127636
(
-2518.36
-2618.67
-2880.01
-3335.16
-3939.63
-4537.57
-4955.04
-5170.14
-5266.88
-5309.97
-5331.69
-5347.85
-5363.27
-5377.88
-5391.61
-5404.38
-5416.13
-5426.78
-5436.26
-5444.49
-5451.41
-2518.35
-2618.76
-2880.48
-3337.17
-3946.67
-4556.18
-4989.59
-5217.67
-5321.95
-5368.92
-5392.74
-5410.55
-5427.64
-5443.92
-5459.33
-5473.78
-5487.21
-5499.53
-5510.68
-5520.56
-5529.1
-2518.35
-2618.84
-2880.96
-3339.15
-3953.6
-4574.57
-5024.03
-5265.36
-5377.42
-5428.41
-5454.41
-5473.94
-5492.76
-5510.79
-5527.95
-5544.16
-5559.34
-5573.41
-5586.28
-5597.88
-5608.11
-2518.35
-2618.93
-2881.42
-3341.1
-3960.42
-4592.74
-5058.31
-5313.17
-5433.27
-5488.41
-5516.69
-5538.01
-5558.63
-5578.48
-5597.46
-5615.5
-5632.51
-5648.4
-5663.09
-5676.48
-5688.49
-2518.34
-2619.02
-2881.88
-3343.01
-3967.12
-4610.67
-5092.39
-5361.07
-5489.46
-5548.92
-5579.55
-5602.73
-5625.23
-5646.97
-5667.86
-5687.82
-5706.74
-5724.53
-5741.11
-5756.38
-5770.24
-2518.34
-2619.1
-2882.33
-3344.89
-3973.69
-4628.34
-5126.24
-5409
-5545.95
-5609.89
-5642.98
-5668.09
-5692.55
-5716.27
-5739.15
-5761.1
-5782.02
-5801.82
-5820.38
-5837.61
-5853.41
-2518.34
-2619.19
-2882.78
-3346.74
-3980.15
-4645.73
-5159.82
-5456.92
-5602.7
-5671.29
-5706.93
-5734.06
-5760.56
-5786.35
-5811.31
-5835.36
-5858.37
-5880.26
-5900.89
-5920.18
-5938.01
-2518.33
-2619.27
-2883.22
-3348.55
-3986.47
-4662.84
-5193.08
-5504.78
-5659.67
-5733.08
-5771.38
-5800.61
-5829.25
-5857.2
-5884.35
-5910.58
-5935.8
-5959.87
-5982.69
-6004.13
-6024.09
-2518.33
-2619.35
-2883.65
-3350.33
-3992.67
-4679.63
-5225.98
-5552.52
-5716.81
-5795.23
-5836.3
-5867.73
-5898.6
-5928.81
-5958.24
-5986.77
-6014.29
-6040.66
-6065.77
-6089.48
-6111.67
-2518.33
-2619.43
-2884.08
-3352.08
-3998.74
-4696.1
-5258.48
-5600.07
-5774.05
-5857.69
-5901.64
-5935.36
-5968.56
-6001.14
-6032.97
-6063.92
-6093.86
-6122.66
-6150.17
-6176.26
-6200.79
-2518.32
-2619.51
-2884.5
-3353.79
-4004.67
-4712.23
-5290.52
-5647.37
-5831.35
-5920.39
-5967.36
-6003.47
-6039.12
-6074.18
-6108.53
-6142.03
-6174.52
-6205.86
-6235.9
-6264.5
-6291.5
-2518.32
-2619.59
-2884.92
-3355.46
-4010.46
-4728.01
-5322.05
-5694.35
-5888.61
-5983.28
-6033.4
-6072.01
-6110.22
-6147.9
-6184.9
-6221.07
-6256.25
-6290.28
-6323
-6354.24
-6383.85
-2518.32
-2619.67
-2885.32
-3357.1
-4016.1
-4743.41
-5353.04
-5740.93
-5945.78
-6046.29
-6099.69
-6140.93
-6181.83
-6222.26
-6262.05
-6301.05
-6339.07
-6375.95
-6411.49
-6445.53
-6477.88
-2518.31
-2619.75
-2885.72
-3358.71
-4021.61
-4758.41
-5383.42
-5787.02
-6002.75
-6109.35
-6166.17
-6210.16
-6253.89
-6297.21
-6339.96
-6381.94
-6422.97
-6462.86
-6501.41
-6538.4
-6573.65
-2518.31
-2619.82
-2886.12
-3360.28
-4026.97
-4773.02
-5413.14
-5832.54
-6059.44
-6172.35
-6232.76
-6279.63
-6326.33
-6372.71
-6418.57
-6463.72
-6507.95
-6551.05
-6592.78
-6632.92
-6671.25
-2518.3
-2619.9
-2886.51
-3361.81
-4032.18
-4787.2
-5442.15
-5877.37
-6115.73
-6235.2
-6299.36
-6349.25
-6399.09
-6448.69
-6497.86
-6546.38
-6594.01
-6640.52
-6685.64
-6729.13
-6770.74
-2518.3
-2619.97
-2886.89
-3363.31
-4037.23
-4800.94
-5470.38
-5921.43
-6171.51
-6297.78
-6365.85
-6418.92
-6472.06
-6525.08
-6577.76
-6629.87
-6681.13
-6731.29
-6780.05
-6827.12
-6872.23
-2518.29
-2620.05
-2887.26
-3364.77
-4042.14
-4814.23
-5497.79
-5964.59
-6226.62
-6359.96
-6432.12
-6488.52
-6545.15
-6601.79
-6658.21
-6714.15
-6769.31
-6823.38
-6876.04
-6926.96
-6975.82
-2518.29
-2620.12
-2887.63
-3366.19
-4046.88
-4827.04
-5524.32
-6006.73
-6280.93
-6421.58
-6498.01
-6557.91
-6618.21
-6678.7
-6739.11
-6799.15
-6858.5
-6916.8
-6973.67
-7028.74
-7081.64
-2518.28
-2620.19
-2887.99
-3367.58
-4051.47
-4839.38
-5549.9
-6047.73
-6334.26
-6482.45
-6563.34
-6626.92
-6691.11
-6755.68
-6820.36
-6884.82
-6948.68
-7011.56
-7073
-7132.58
-7189.84
-2518.28
-2620.26
-2888.34
-3368.93
-4055.9
-4851.21
-5574.48
-6087.45
-6386.42
-6542.38
-6627.91
-6695.34
-6763.64
-6832.57
-6901.82
-6971.04
-7039.8
-7107.66
-7174.1
-7238.59
-7300.61
-2518.28
-2620.33
-2888.69
-3370.24
-4060.16
-4862.54
-5597.99
-6125.74
-6437.19
-6601.13
-6691.48
-6762.95
-6835.59
-6909.15
-6983.31
-7057.68
-7131.78
-7205.1
-7277.02
-7346.92
-7414.17
-2518.27
-2620.4
-2889.03
-3371.52
-4064.25
-4873.33
-5620.39
-6162.46
-6486.36
-6658.43
-6753.77
-6829.45
-6906.67
-6985.16
-7064.6
-7144.56
-7224.52
-7303.85
-7381.85
-7457.76
-7530.8
-2518.27
-2620.47
-2889.37
-3372.76
-4068.18
-4883.59
-5641.62
-6197.46
-6533.66
-6713.98
-6814.45
-6894.52
-6976.54
-7060.28
-7145.4
-7231.45
-7317.83
-7403.85
-7488.65
-7571.3
-7650.82
-2518.26
-2620.53
-2889.69
-3373.96
-4071.95
-4893.3
-5661.62
-6230.57
-6578.83
-6767.43
-6873.14
-6957.75
-7044.8
-7134.11
-7225.33
-7318.01
-7411.5
-7505
-7597.48
-7687.78
-7774.67
-2518.25
-2620.6
-2890.01
-3375.12
-4075.54
-4902.45
-5680.33
-6261.65
-6621.56
-6818.4
-6929.41
-7018.66
-7110.95
-7206.12
-7303.89
-7403.8
-7505.18
-7607.11
-7708.36
-7807.48
-7902.86
-2518.25
-2620.66
-2890.33
-3376.24
-4078.95
-4911.02
-5697.72
-6290.52
-6661.56
-6866.46
-6982.77
-7076.71
-7174.37
-7275.68
-7380.43
-7488.21
-7598.35
-7709.84
-7821.24
-7930.7
-8036.08
-2518.24
-2620.73
-2890.63
-3377.33
-4082.2
-4919.02
-5713.72
-6317.04
-6698.49
-6911.14
-7032.64
-7131.26
-7234.36
-7342
-7454.11
-7570.39
-7690.26
-7812.67
-7935.95
-8057.78
-8175.22
-2518.24
-2620.79
-2890.93
-3378.37
-4085.27
-4926.42
-5728.3
-6341.06
-6732.03
-6951.96
-7078.43
-7181.59
-7290.07
-7404.11
-7523.84
-7649.2
-7779.79
-7914.66
-8052.03
-8189
-8321.49
-2518.23
-2620.85
-2891.23
-3379.38
-4088.16
-4933.23
-5741.43
-6362.44
-6761.87
-6988.41
-7119.47
-7226.91
-7340.55
-7460.86
-7588.28
-7723.08
-7865.29
-8014.31
-8168.48
-8324.43
-8476.51
-2518.23
-2620.91
-2891.51
-3380.35
-4090.88
-4939.43
-5753.05
-6381.06
-6787.69
-7019.99
-7155.11
-7266.38
-7384.74
-7510.92
-7645.73
-7789.99
-7944.38
-8109.11
-8283.25
-8463.52
-8642.43
-2518.22
-2620.97
-2891.79
-3381.28
-4093.42
-4945.03
-5763.16
-6396.8
-6809.25
-7046.22
-7184.7
-7299.19
-7421.55
-7552.84
-7694.29
-7847.36
-8013.73
-8195.03
-8392.25
-8603.87
-8821.8
-2518.21
-2621.03
-2892.07
-3382.17
-4095.78
-4950
-5771.72
-6409.59
-6826.3
-7066.71
-7207.68
-7324.57
-7449.97
-7585.19
-7731.89
-7892.21
-8069.01
-8265.98
-8487.67
-8738.29
-9015.7
-2518.21
-2621.09
-2892.33
-3383.02
-4097.96
-4954.36
-5778.72
-6419.36
-6838.68
-7081.16
-7223.61
-7341.92
-7469.13
-7606.72
-7756.64
-7921.55
-8105.28
-8313.63
-8555.85
-8847.47
-9212.65
-5457
-5461.11
-5463.64
-5464.5
-5463.62
-5460.94
-5456.39
-5449.89
-5441.39
-5430.82
-5418.12
-5403.22
-5386.07
-5366.61
-5344.77
-5320.49
-5293.71
-5264.36
-5232.38
-5197.71
-5160.26
-5119.96
-5076.72
-5030.48
-4981.12
-4928.56
-4872.68
-4813.38
-4750.53
-4683.99
-4613.62
-4539.27
-4453.79
-4371.97
-4285.65
-4194.59
-4098.52
-3997.16
-3890.16
-3777.14
-3657.64
-3531.13
-3396.96
-3259.46
-3108.73
-2947.54
-2774.34
-2587.05
-2382.81
-2157.4
-1904.32
-1612.48
-1260.46
-798.375
-5536.29
-5542.01
-5546.09
-5548.48
-5549.09
-5547.86
-5544.7
-5539.56
-5532.37
-5523.05
-5511.56
-5497.83
-5481.79
-5463.4
-5442.58
-5419.27
-5393.43
-5364.97
-5333.84
-5299.97
-5263.28
-5223.7
-5181.15
-5135.55
-5086.8
-5034.8
-4979.46
-4920.65
-4858.25
-4792.12
-4722.13
-4648.12
-4561.86
-4480.27
-4394.14
-4303.21
-4207.26
-4105.96
-3999.01
-3886.01
-3766.54
-3640.07
-3506
-3367.6
-3217.08
-3056.3
-2883.87
-2697.97
-2496.14
-2275.03
-2029.9
-1754.06
-1439.12
-1083.22
-5616.99
-5624.37
-5630.1
-5634.08
-5636.24
-5636.51
-5634.82
-5631.09
-5625.26
-5617.27
-5607.04
-5594.53
-5579.66
-5562.39
-5542.64
-5520.37
-5495.51
-5468
-5437.78
-5404.78
-5368.92
-5330.14
-5288.35
-5243.48
-5195.43
-5144.09
-5089.38
-5031.17
-4969.34
-4903.77
-4834.3
-4760.78
-4673.88
-4592.71
-4506.96
-4416.42
-4320.83
-4219.9
-4113.34
-4000.77
-3881.79
-3755.91
-3622.59
-3484.02
-3334.69
-3175.58
-3005.57
-2823.22
-2626.8
-2414.2
-2183.04
-1931.39
-1660.24
-1380.93
-5699.12
-5708.25
-5715.68
-5721.32
-5725.11
-5726.95
-5726.78
-5724.53
-5720.13
-5713.5
-5704.6
-5693.36
-5679.71
-5663.62
-5645
-5623.82
-5600.01
-5573.5
-5544.25
-5512.18
-5477.22
-5439.31
-5398.36
-5354.3
-5307.03
-5256.45
-5202.47
-5144.98
-5083.85
-5018.95
-4950.14
-4877.28
-4789.86
-4709.29
-4624.14
-4534.2
-4439.23
-4338.97
-4233.12
-4121.34
-4003.28
-3878.49
-3746.52
-3608.45
-3461.14
-3304.74
-3138.42
-2961.21
-2772.13
-2570.24
-2355.1
-2127.64
-1892.05
-1658.83
-5782.72
-5793.67
-5802.88
-5810.26
-5815.74
-5819.22
-5820.64
-5819.92
-5817
-5811.81
-5804.28
-5794.36
-5782
-5767.13
-5749.7
-5729.66
-5706.94
-5681.5
-5653.28
-5622.2
-5588.21
-5551.23
-5511.2
-5468.02
-5421.63
-5371.9
-5318.76
-5262.09
-5201.78
-5137.68
-5069.68
-4997.61
-4909.81
-4830.02
-4745.66
-4656.54
-4562.44
-4463.1
-4358.26
-4247.62
-4130.86
-4007.6
-3877.46
-3740.43
-3595.83
-3442.9
-3281.12
-3109.98
-2929.12
-2738.49
-2538.78
-2332.09
-2122.89
-1918.82
-5867.81
-5880.66
-5891.73
-5900.93
-5908.17
-5913.37
-5916.44
-5917.32
-5915.94
-5912.23
-5906.14
-5897.6
-5886.56
-5872.97
-5856.77
-5837.92
-5816.36
-5792.03
-5764.89
-5734.87
-5701.91
-5665.94
-5626.89
-5584.68
-5539.24
-5490.46
-5438.25
-5382.52
-5323.13
-5259.97
-5192.9
-5121.79
-5033.73
-4954.88
-4871.51
-4783.41
-4690.4
-4592.23
-4488.68
-4379.46
-4264.32
-4142.95
-4015.04
-3879.51
-3738.07
-3589.1
-3432.34
-3267.64
-3095.09
-2915.17
-2729.14
-2539.29
-2349.47
-2165.04
-5954.43
-5969.27
-5982.29
-5993.38
-6002.46
-6009.44
-6014.23
-6016.77
-6016.99
-6014.82
-6010.21
-6003.1
-5993.43
-5981.17
-5966.25
-5948.64
-5928.28
-5905.12
-5879.12
-5850.21
-5818.34
-5783.44
-5745.44
-5704.28
-5659.88
-5612.13
-5560.96
-5506.26
-5447.91
-5385.8
-5319.81
-5249.78
-5161.58
-5083.85
-5001.63
-4914.76
-4823.04
-4726.26
-4624.22
-4516.69
-4403.44
-4284.24
-4158.85
-4025.12
-3887.15
-3742.39
-3590.79
-3432.48
-3267.81
-3097.57
-2923.13
-2746.67
-2571.26
-2400.7
-6042.62
-6059.55
-6074.6
-6087.67
-6098.66
-6107.49
-6114.07
-6118.33
-6120.21
-6119.63
-6116.55
-6110.92
-6102.67
-6091.78
-6078.19
-6061.86
-6042.74
-6020.8
-5995.98
-5968.24
-5937.51
-5903.75
-5866.87
-5826.83
-5783.54
-5736.92
-5686.87
-5633.3
-5576.1
-5515.16
-5450.37
-5381.57
-5293.34
-5216.88
-5135.99
-5050.5
-4960.26
-4865.06
-4764.75
-4659.11
-4547.97
-4431.14
-4308.48
-4176.77
-4042.4
-3901.91
-3755.4
-3603.14
-3445.69
-3283.88
-3119.11
-2953.23
-2788.68
-2628.23
-6132.41
-6151.52
-6168.7
-6183.83
-6196.82
-6207.58
-6216.02
-6222.06
-6225.65
-6226.72
-6225.22
-6221.1
-6214.32
-6204.83
-6192.61
-6177.6
-6159.77
-6139.09
-6115.5
-6088.97
-6059.45
-6026.87
-5991.19
-5952.33
-5910.23
-5864.81
-5815.97
-5763.64
-5707.69
-5648.04
-5584.55
-5517.12
-5428.98
-5353.93
-5274.5
-5190.57
-5101.96
-5008.53
-4910.1
-4806.53
-4697.66
-4583.36
-4463.53
-4333.95
-4203.22
-4066.91
-3925.24
-3778.59
-3627.54
-3472.98
-3316.15
-3158.64
-3002.36
-2849.42
-6223.86
-6245.26
-6264.66
-6281.95
-6297.01
-6309.77
-6320.13
-6328.02
-6333.38
-6336.14
-6336.26
-6333.7
-6328.42
-6320.38
-6309.55
-6295.9
-6279.4
-6260.01
-6237.7
-6212.43
-6184.15
-6152.82
-6118.38
-6080.78
-6039.94
-5995.8
-5948.26
-5897.25
-5842.66
-5784.39
-5722.34
-5656.37
-5568.44
-5494.93
-5417.13
-5334.88
-5248.07
-5156.53
-5060.15
-4958.76
-4852.28
-4740.6
-4623.67
-4496.28
-4369.11
-4236.82
-4099.67
-3958.07
-3812.64
-3664.22
-3513.88
-3362.97
-3213.02
-3065.67
-6317.01
-6340.81
-6362.54
-6382.07
-6399.31
-6414.14
-6426.49
-6436.29
-6443.46
-6447.96
-6449.75
-6448.78
-6445.02
-6438.46
-6429.06
-6416.79
-6401.65
-6383.59
-6362.58
-6338.61
-6311.63
-6281.59
-6248.46
-6212.17
-6172.66
-6129.86
-6083.71
-6034.1
-5980.96
-5924.19
-5863.67
-5799.29
-5711.65
-5639.82
-5563.75
-5483.33
-5398.44
-5308.93
-5214.7
-5115.62
-5011.62
-4902.61
-4788.57
-4663.38
-4539.65
-4411.13
-4278.13
-4141.05
-4000.49
-3857.19
-3712.13
-3566.41
-3421.29
-3278.09
-6411.92
-6438.24
-6462.4
-6484.29
-6503.78
-6520.77
-6535.18
-6546.93
-6555.97
-6562.25
-6565.73
-6566.38
-6564.18
-6559.12
-6551.16
-6540.31
-6526.54
-6509.83
-6490.17
-6467.53
-6441.88
-6413.18
-6381.39
-6346.47
-6308.36
-6266.98
-6222.28
-6174.17
-6122.57
-6067.38
-6008.5
-5945.82
-5858.59
-5788.55
-5714.34
-5635.87
-5553.01
-5465.65
-5373.67
-5276.98
-5175.51
-5069.2
-4958.04
-4834.99
-4714.55
-4589.57
-4460.33
-4327.25
-4190.85
-4051.83
-3911.01
-3769.34
-3627.85
-3487.63
-6508.65
-6537.62
-6564.35
-6588.68
-6610.52
-6629.74
-6646.27
-6660.04
-6670.99
-6679.08
-6684.28
-6686.57
-6685.95
-6682.39
-6675.9
-6666.47
-6654.09
-6638.76
-6620.46
-6599.18
-6574.89
-6547.57
-6517.18
-6483.68
-6447.01
-6407.13
-6363.95
-6317.42
-6267.44
-6213.92
-6156.78
-6095.91
-6009.17
-5941.02
-5868.79
-5792.37
-5711.66
-5626.54
-5536.91
-5442.67
-5343.78
-5240.17
-5131.86
-5010.88
-4893.57
-4771.86
-4646.03
-4516.45
-4383.6
-4248.1
-4110.65
-3972.07
-3833.23
-3695.04
-6607.29
-6639.05
-6668.45
-6695.35
-6719.62
-6741.16
-6759.88
-6775.71
-6788.6
-6798.53
-6805.47
-6809.42
-6810.37
-6808.33
-6803.31
-6795.31
-6784.33
-6770.38
-6753.46
-6733.56
-6710.67
-6684.75
-6655.79
-6623.76
-6588.59
-6550.25
-6508.67
-6463.79
-6415.51
-6363.76
-6308.45
-6249.48
-6163.34
-6097.2
-6027.05
-5952.8
-5874.34
-5791.55
-5704.34
-5612.62
-5516.34
-5415.44
-5309.92
-5190.95
-5076.6
-4957.92
-4835.16
-4708.65
-4578.81
-4446.17
-4311.36
-4175.07
-4038.05
-3901.09
-6707.91
-6742.6
-6774.83
-6804.41
-6831.22
-6855.14
-6876.1
-6894.04
-6908.91
-6920.69
-6929.38
-6934.98
-6937.51
-6936.98
-6933.42
-6926.84
-6917.27
-6904.71
-6889.17
-6870.66
-6849.17
-6824.7
-6797.2
-6766.67
-6733.06
-6696.32
-6656.4
-6613.23
-6566.74
-6516.84
-6463.45
-6406.48
-6321.01
-6256.98
-6189.02
-6117.03
-6040.91
-5960.55
-5875.85
-5786.71
-5693.07
-5594.88
-5492.13
-5375.09
-5263.56
-5147.69
-5027.69
-4903.86
-4776.55
-4646.21
-4513.4
-4378.7
-4242.79
-4106.35
-6810.61
-6848.41
-6883.6
-6915.98
-6945.43
-6971.82
-6995.08
-7015.15
-7032.01
-7045.66
-7056.09
-7063.34
-7067.43
-7068.39
-7066.27
-7061.11
-7052.92
-7041.73
-7027.58
-7010.47
-6990.4
-6967.37
-6941.38
-6912.38
-6880.37
-6845.28
-6807.07
-6765.69
-6721.05
-6673.09
-6621.71
-6566.83
-6482.15
-6420.33
-6354.65
-6285.04
-6211.36
-6133.52
-6051.4
-5964.91
-5873.96
-5778.5
-5678.47
-5563.31
-5454.48
-5341.23
-5223.75
-5102.26
-4977.06
-4848.54
-4717.17
-4583.47
-4448.02
-4311.47
-6915.5
-6956.61
-6994.91
-7030.23
-7062.41
-7091.34
-7116.95
-7139.19
-7158.05
-7173.54
-7185.7
-7194.56
-7200.18
-7202.6
-7201.9
-7198.11
-7191.28
-7181.46
-7168.68
-7152.96
-7134.31
-7112.75
-7088.27
-7060.84
-7030.46
-6997.07
-6960.63
-6921.1
-6878.39
-6832.44
-6783.16
-6730.46
-6646.64
-6587.13
-6523.85
-6456.7
-6385.58
-6310.35
-6230.91
-6147.14
-6058.94
-5966.23
-5868.94
-5755.6
-5649.38
-5538.62
-5423.43
-5304.01
-5180.57
-5053.45
-4923.04
-4789.8
-4654.25
-4516.99
-7022.74
-7067.34
-7108.95
-7147.33
-7182.35
-7213.89
-7241.88
-7266.29
-7287.14
-7304.46
-7318.3
-7328.73
-7335.83
-7339.67
-7340.33
-7337.87
-7332.37
-7323.88
-7312.45
-7298.11
-7280.88
-7260.79
-7237.83
-7212
-7183.28
-7151.64
-7117.02
-7079.4
-7038.69
-6994.83
-6947.73
-6897.3
-6814.45
-6757.35
-6696.57
-6632.01
-6563.54
-6491.04
-6414.37
-6333.41
-6248.04
-6158.13
-6063.61
-5952.09
-5848.42
-5740.04
-5627.01
-5509.43
-5387.47
-5261.39
-5131.51
-4998.25
-4862.07
-4723.54
-7132.47
-7180.8
-7225.89
-7267.49
-7305.45
-7339.65
-7370.05
-7396.63
-7419.44
-7438.53
-7454
-7465.93
-7474.44
-7479.62
-7481.58
-7480.4
-7476.17
-7468.97
-7458.85
-7445.87
-7430.05
-7411.43
-7390
-7365.78
-7338.75
-7308.89
-7276.14
-7240.48
-7201.84
-7160.14
-7115.31
-7067.25
-6985.46
-6930.88
-6872.71
-6810.84
-6745.16
-6675.5
-6601.72
-6523.69
-6441.24
-6354.23
-6262.53
-6152.85
-6051.74
-5945.7
-5834.72
-5718.82
-5598.12
-5472.79
-5343.07
-5209.34
-5072.02
-4931.67
-7244.88
-7297.21
-7345.99
-7390.96
-7431.96
-7468.87
-7501.68
-7530.4
-7555.1
-7575.9
-7592.9
-7606.24
-7616.06
-7622.5
-7625.67
-7625.69
-7622.68
-7616.71
-7607.86
-7596.2
-7581.77
-7564.6
-7544.71
-7522.11
-7496.8
-7468.74
-7437.92
-7404.27
-7367.76
-7328.3
-7285.82
-7240.23
-7159.6
-7107.64
-7052.2
-6993.16
-6930.37
-6863.69
-6792.95
-6717.97
-6638.57
-6554.58
-6465.82
-6358.02
-6259.53
-6155.85
-6046.88
-5932.58
-5812.97
-5688.15
-5558.28
-5423.68
-5284.75
-5142
-7360.22
-7416.84
-7469.54
-7518.05
-7562.17
-7601.83
-7637.02
-7667.81
-7694.32
-7716.7
-7735.12
-7749.75
-7760.76
-7768.33
-7772.62
-7773.75
-7771.86
-7767.06
-7759.43
-7749.05
-7735.97
-7720.24
-7701.88
-7680.92
-7657.33
-7631.12
-7602.25
-7570.68
-7536.35
-7499.21
-7459.16
-7416.12
-7336.76
-7287.55
-7234.95
-7178.87
-7119.13
-7055.57
-6988.02
-6916.25
-6840.08
-6759.28
-6673.61
-6567.81
-6472.04
-6370.8
-6263.9
-6151.19
-6032.6
-5908.11
-5777.83
-5641.99
-5500.95
-5355.25
-7478.76
-7540.02
-7596.91
-7649.11
-7696.44
-7738.84
-7776.36
-7809.12
-7837.3
-7861.11
-7880.78
-7896.53
-7908.59
-7917.16
-7922.43
-7924.56
-7923.7
-7919.97
-7913.49
-7904.34
-7892.58
-7878.26
-7861.43
-7842.09
-7820.25
-7795.91
-7769.03
-7739.58
-7707.51
-7672.74
-7635.22
-7594.84
-7516.85
-7470.49
-7420.88
-7367.89
-7311.35
-7251.09
-7186.9
-7118.55
-7045.8
-6968.38
-6886.02
-6782.36
-6689.53
-6590.9
-6486.19
-6375.15
-6257.57
-6133.33
-6002.43
-5865.02
-5721.42
-5572.14
-7600.88
-7667.18
-7728.54
-7784.59
-7835.18
-7880.28
-7920.02
-7954.58
-7984.24
-8009.28
-8030
-8046.68
-8059.59
-8068.99
-8075.08
-8078.08
-8078.13
-8075.4
-8069.99
-8062
-8051.51
-8038.58
-8023.25
-8005.54
-7985.46
-7963
-7938.15
-7910.87
-7881.1
-7848.8
-7813.88
-7776.24
-7699.74
-7656.37
-7609.87
-7560.12
-7506.96
-7450.18
-7389.55
-7324.84
-7255.75
-7181.98
-7103.2
-7001.93
-6912.29
-6816.53
-6714.25
-6605.06
-6488.61
-6364.63
-6232.99
-6093.71
-5947.06
-5793.58
-7727
-7798.82
-7864.97
-7925.04
-7978.9
-8026.6
-8068.37
-8104.5
-8135.37
-8161.37
-8182.87
-8200.23
-8213.78
-8223.8
-8230.56
-8234.26
-8235.1
-8233.24
-8228.82
-8221.93
-8212.66
-8201.07
-8187.22
-8171.13
-8152.81
-8132.26
-8109.47
-8084.4
-8057
-8027.22
-7994.99
-7960.2
-7885.31
-7845.04
-7801.8
-7755.46
-7705.85
-7652.75
-7595.92
-7535.09
-7469.95
-7400.14
-7325.27
-7226.65
-7140.58
-7048.07
-6948.58
-6841.57
-6726.5
-6602.92
-6470.5
-6329.12
-6178.96
-6020.53
-7857.7
-7935.63
-8006.92
-8071.14
-8128.21
-8178.32
-8221.83
-8259.19
-8290.93
-8317.55
-8339.51
-8357.26
-8371.17
-8381.59
-8388.8
-8393.04
-8394.53
-8393.43
-8389.89
-8384.01
-8375.91
-8365.63
-8353.23
-8338.75
-8322.19
-8303.57
-8282.86
-8260.04
-8235.07
-8207.88
-8178.42
-8146.58
-8073.42
-8036.38
-7996.54
-7953.77
-7907.9
-7858.7
-7805.92
-7749.26
-7688.38
-7622.89
-7552.33
-7456.75
-7374.72
-7285.95
-7189.76
-7085.41
-6972.14
-6849.26
-6716.18
-6572.56
-6418.43
-6254.25
-7993.72
-8078.47
-8155.28
-8223.73
-8283.85
-8336.03
-8380.86
-8419
-8451.15
-8477.95
-8499.98
-8517.77
-8531.75
-8542.3
-8549.73
-8554.33
-8556.3
-8555.83
-8553.07
-8548.14
-8541.13
-8532.11
-8521.14
-8508.25
-8493.46
-8476.77
-8458.17
-8437.64
-8415.14
-8390.62
-8364
-8335.2
-8263.9
-8230.21
-8193.92
-8154.91
-8112.98
-8067.91
-8019.43
-7967.25
-7910.99
-7850.23
-7784.46
-7692.37
-7614.94
-7530.55
-7438.34
-7337.34
-7226.54
-7104.89
-6971.47
-6825.61
-6667.08
-6496.26
-8136.07
-8228.51
-8311.24
-8383.88
-8446.7
-8500.43
-8545.96
-8584.25
-8616.22
-8642.68
-8664.31
-8681.73
-8695.43
-8705.82
-8713.25
-8718
-8720.29
-8720.32
-8718.23
-8714.15
-8708.17
-8700.36
-8690.79
-8679.47
-8666.44
-8651.7
-8635.24
-8617.04
-8597.06
-8575.25
-8551.56
-8525.89
-8456.58
-8426.37
-8393.78
-8358.69
-8320.9
-8280.19
-8236.31
-8188.93
-8137.68
-8082.1
-8021.66
-7933.58
-7861.47
-7782.25
-7694.89
-7598.19
-7490.79
-7371.24
-7238.12
-7090.26
-6927
-6748.51
-8286.11
-8387.36
-8476.37
-8552.94
-8617.82
-8672.25
-8717.63
-8755.25
-8786.31
-8811.77
-8832.47
-8849.07
-8862.12
-8872.04
-8879.21
-8883.89
-8886.34
-8886.72
-8885.19
-8881.88
-8876.87
-8870.23
-8862.01
-8852.25
-8840.98
-8828.19
-8813.89
-8798.04
-8780.63
-8761.6
-8740.9
-8718.46
-8651.26
-8624.66
-8595.91
-8564.9
-8531.46
-8495.37
-8456.36
-8414.12
-8368.28
-8318.38
-8263.85
-8180.41
-8114.41
-8041.31
-7959.91
-7868.75
-7766.08
-7649.94
-7518.24
-7369.02
-7200.88
-7013.58
-8445.85
-8557.32
-8652.8
-8732.61
-8798.42
-8852.32
-8896.33
-8932.23
-8961.46
-8985.2
-9004.36
-9019.65
-9031.63
-9040.77
-9047.41
-9051.83
-9054.25
-9054.86
-9053.79
-9051.15
-9047.04
-9041.52
-9034.63
-9026.42
-9016.89
-9006.07
-8993.93
-8980.48
-8965.67
-8949.47
-8931.83
-8912.69
-8847.74
-8824.85
-8800.08
-8773.33
-8744.43
-8713.18
-8679.33
-8642.58
-8602.57
-8558.84
-8510.84
-8432.73
-8373.75
-8307.88
-8233.76
-8149.71
-8053.58
-7942.78
-7814.34
-7665.1
-7492.41
-7295.04
-8618.31
-8741.81
-8843.45
-8925.01
-8989.85
-9041.35
-9082.4
-9115.25
-9141.61
-9162.79
-9179.75
-9193.21
-9203.74
-9211.77
-9217.63
-9221.58
-9223.82
-9224.52
-9223.8
-9221.77
-9218.5
-9214.05
-9208.46
-9201.77
-9193.99
-9185.13
-9175.18
-9164.13
-9151.97
-9138.65
-9124.13
-9108.36
-9045.78
-9026.72
-9006.05
-8983.71
-8959.53
-8933.34
-8904.92
-8873.99
-8840.22
-8803.18
-8762.34
-8690.29
-8639.3
-8581.87
-8516.59
-8441.57
-8354.33
-8251.63
-8129.37
-7982.69
-7806.69
-7598.1
-8808.58
-8946.14
-9052.32
-9132.6
-9193.38
-9239.88
-9275.91
-9304.15
-9326.48
-9344.22
-9358.31
-9369.44
-9378.13
-9384.74
-9389.58
-9392.87
-9394.79
-9395.46
-9395.01
-9393.51
-9391.03
-9387.61
-9383.3
-9378.11
-9372.07
-9365.17
-9357.42
-9348.81
-9339.32
-9328.91
-9317.57
-9305.23
-9245.14
-9230
-9213.55
-9195.74
-9176.45
-9155.52
-9132.78
-9107.97
-9080.82
-9050.94
-9017.88
-8952.63
-8910.62
-8862.93
-8808.18
-8744.43
-8669.01
-8578.13
-8466.53
-8327.1
-8151.15
-7930.83
-9026.19
-9178.97
-9284.7
-9357.91
-9409.88
-9447.91
-9476.48
-9498.42
-9515.51
-9528.96
-9539.56
-9547.9
-9554.38
-9559.32
-9562.94
-9565.41
-9566.88
-9567.44
-9567.17
-9566.14
-9564.4
-9561.99
-9558.92
-9555.23
-9550.92
-9545.99
-9540.45
-9534.29
-9527.49
-9520.03
-9511.9
-9503.05
-9445.57
-9434.41
-9422.27
-9409.12
-9394.85
-9379.36
-9362.5
-9344.08
-9323.88
-9301.59
-9276.85
-9219.13
-9187.03
-9150.34
-9107.84
-9057.76
-8997.51
-8923.18
-8828.73
-8704.69
-8536.74
-8306.97
-9292.39
-9454.52
-9546.62
-9602.49
-9639.05
-9664.52
-9683.09
-9697.09
-9707.87
-9716.27
-9722.87
-9728.04
-9732.05
-9735.1
-9737.34
-9738.87
-9739.79
-9740.16
-9740.02
-9739.42
-9738.39
-9736.96
-9735.12
-9732.91
-9730.33
-9727.37
-9724.04
-9720.34
-9716.25
-9711.77
-9706.88
-9701.56
-9646.78
-9639.67
-9631.91
-9623.5
-9614.37
-9604.44
-9593.63
-9581.8
-9568.81
-9554.46
-9538.48
-9488.92
-9467.54
-9442.95
-9414.27
-9380.15
-9338.51
-9286.05
-9217.12
-9121.46
-8979.15
-8752.79
-9664.93
-9793.67
-9841.43
-9864.62
-9878.29
-9887.38
-9893.86
-9898.69
-9902.37
-9905.24
-9907.48
-9909.23
-9910.58
-9911.62
-9912.37
-9912.9
-9913.21
-9913.34
-9913.29
-9913.1
-9912.76
-9912.28
-9911.67
-9910.93
-9910.07
-9909.09
-9907.98
-9906.74
-9905.38
-9903.88
-9902.25
-9900.47
-9848.5
-9845.47
-9842.14
-9838.52
-9834.6
-9830.33
-9825.68
-9820.58
-9814.98
-9808.79
-9801.88
-9760.98
-9750.89
-9739.23
-9725.56
-9709.2
-9689.05
-9663.29
-9628.59
-9578.11
-9494.96
-9325.33
-149.695
-64.0817
-50.2203
-43.3662
-38.9641
-35.7623
-33.2534
-31.1872
-29.4244
-27.8809
-26.5026
-25.2529
-24.1068
-23.046
-22.0551
-21.1278
-20.256
-19.4305
-18.6481
-17.9051
-17.1981
-16.5245
-15.8821
-15.2688
-14.683
-14.1231
-13.5877
-13.0757
-12.5859
-12.1171
-11.6685
-11.2391
-10.828
-10.4344
-10.0575
-9.69657
-9.35086
-9.01976
-8.70259
-8.3987
-8.10757
-7.82858
-7.5612
-7.30494
-7.0593
-6.82377
-6.59795
-6.38141
-6.17372
-5.97449
-5.78337
-5.59995
-5.42395
-5.25501
-5.09282
-4.9371
-4.78756
-4.64392
-4.50595
-4.37338
-4.24596
-4.12351
-4.00579
-3.8926
-3.78376
-3.67906
-3.57834
-3.48142
-3.38814
-3.29836
-3.21193
-3.1287
-3.04854
-2.97132
-2.89693
-2.82524
-2.75615
-2.68955
-2.62533
-2.5634
-2.50367
-2.44605
-2.39046
-2.33681
-2.28503
-2.23505
-2.18679
-2.14019
-2.09517
-2.05169
-2.00968
-1.96909
-1.92986
-1.89195
-1.85529
-1.81985
-1.78558
-1.75243
-1.72038
-1.68937
-1.65936
-1.63034
-1.60225
-1.57506
-1.54875
-1.52329
-1.49864
-1.47467
-2.89764
-2.8531
-2.80993
-2.76817
-2.72773
-2.68859
-2.65064
-2.61394
-2.57841
-2.54401
-2.51069
-2.47844
-2.44725
-2.41707
-2.38787
-2.3596
-2.33229
-2.30589
-2.28037
-2.25569
-2.23188
-2.2089
-2.18672
-2.16533
-2.14471
-2.12486
-2.10576
-2.08739
-2.06973
-2.05281
-2.03658
-2.02105
-2.00618
-1.99202
-1.97852
-1.9657
-1.95353
-1.94202
-1.93117
-1.92099
-1.91145
-1.90257
-1.89436
-1.88681
-1.87992
-1.87369
-1.86815
-1.86329
-1.85912
-1.85565
-1.8529
-1.85086
-1.84957
-1.84903
-1.84925
-1.85027
-1.85209
-1.85475
-1.85826
-1.86265
-1.86795
-1.87419
-1.88142
-1.88965
-1.89893
-1.90932
-1.92086
-1.93359
-1.94758
-1.96289
-1.97959
-1.99776
-2.01747
-2.03881
-2.0619
-2.08686
-2.11377
-2.1428
-2.17409
-2.20785
-2.24425
-2.28349
-2.32584
-2.37162
-2.42113
-2.47474
-2.53291
-2.59617
-2.66521
-2.74063
-2.82337
-2.91453
-3.01554
-3.12785
-3.25366
-3.39567
-3.55753
-3.74398
-3.9615
-4.21969
-4.53274
-4.92351
-5.42917
-6.1214
-7.15644
-8.98881
-13.9184
-741.819
-540.466
-442.895
-386.597
-348.77
-320.74
-298.548
-280.17
-264.449
-250.641
-238.296
-227.098
-216.808
-207.283
-198.397
-190.069
-182.214
-174.801
-167.763
-161.081
-154.723
-148.66
-142.886
-137.373
-132.099
-127.06
-122.25
-117.644
-113.237
-109.02
-104.981
-101.118
-97.4202
-93.8765
-90.4905
-87.2412
-84.1297
-81.1504
-78.2969
-75.5651
-72.9476
-70.4376
-68.0303
-65.7233
-63.515
-61.396
-59.3661
-57.4149
-55.5463
-53.7554
-52.0355
-50.3846
-48.8023
-47.2825
-45.8218
-44.4213
-43.076
-41.7847
-40.5424
-39.3517
-38.2044
-37.1027
-36.0436
-35.0252
-34.0468
-33.1048
-32.1978
-31.3247
-30.4859
-29.6781
-28.9019
-28.1524
-27.4312
-26.7358
-26.0672
-25.4222
-24.8005
-24.2013
-23.6241
-23.0657
-22.5284
-22.0105
-21.5108
-21.0282
-20.5618
-20.112
-19.6778
-19.2585
-18.853
-18.4623
-18.0842
-17.7191
-17.366
-17.0254
-16.6947
-16.3762
-16.0683
-15.7693
-15.4812
-15.2022
-14.9319
-14.6715
-14.4184
-14.1741
-13.937
-13.7079
-13.4861
-13.2709
-14.4859
-14.2633
-14.0474
-13.8387
-13.6366
-13.4409
-13.2512
-13.0678
-12.8902
-12.7182
-12.5517
-12.3905
-12.2346
-12.0837
-11.9377
-11.7964
-11.6599
-11.5279
-11.4003
-11.277
-11.158
-11.0431
-10.9322
-10.8253
-10.7222
-10.623
-10.5275
-10.4356
-10.3474
-10.2628
-10.1817
-10.104
-10.0297
-9.95888
-9.89141
-9.82729
-9.76645
-9.70891
-9.6547
-9.60376
-9.55609
-9.5117
-9.47062
-9.43286
-9.39841
-9.36728
-9.33956
-9.31526
-9.2944
-9.27704
-9.26325
-9.25307
-9.24658
-9.24385
-9.24496
-9.25002
-9.25911
-9.27235
-9.28988
-9.3118
-9.33826
-9.36943
-9.40552
-9.44663
-9.49301
-9.54487
-9.60249
-9.66611
-9.73598
-9.81243
-9.89586
-9.98661
-10.085
-10.1916
-10.3069
-10.4316
-10.566
-10.711
-10.8672
-11.0358
-11.2175
-11.4134
-11.6248
-11.8534
-12.1005
-12.368
-12.6583
-12.9739
-13.3182
-13.6943
-14.1068
-14.5611
-15.0643
-15.6234
-16.2494
-16.9555
-17.7595
-18.6843
-19.7614
-21.0367
-22.5775
-24.4904
-26.9435
-30.2468
-35.0125
-42.6354
-56.5659
-1126.06
-933.198
-803.399
-714.704
-650.288
-600.641
-560.503
-526.83
-497.762
-472.109
-449.076
-428.112
-408.833
-390.947
-374.243
-358.566
-343.787
-329.808
-316.553
-303.959
-291.97
-280.546
-269.647
-259.241
-249.3
-239.798
-230.712
-222.02
-213.707
-205.75
-198.134
-190.845
-183.866
-177.184
-170.785
-164.658
-158.789
-153.168
-147.784
-142.624
-137.682
-132.945
-128.406
-124.056
-119.885
-115.887
-112.053
-108.377
-104.85
-101.468
-98.2234
-95.1094
-92.121
-89.2529
-86.4993
-83.8555
-81.3166
-78.8777
-76.5351
-74.2842
-72.1208
-70.0417
-68.0429
-66.121
-64.2731
-62.4951
-60.7848
-59.1391
-57.5556
-56.0309
-54.5631
-53.1499
-51.7887
-50.4774
-49.2142
-47.9968
-46.8235
-45.6925
-44.6019
-43.5503
-42.536
-41.5575
-40.6133
-39.7023
-38.8229
-37.974
-37.1544
-36.363
-35.5984
-34.86
-34.1466
-33.4572
-32.7909
-32.1469
-31.5243
-30.9224
-30.3403
-29.7774
-29.2329
-28.7062
-28.1966
-27.7035
-27.2264
-26.7646
-26.3178
-25.8852
-25.4665
-25.061
-26.0676
-25.6671
-25.2788
-24.9033
-24.5397
-24.1877
-23.8464
-23.5164
-23.1968
-22.8875
-22.5879
-22.2979
-22.0174
-21.7459
-21.4833
-21.2291
-20.9834
-20.746
-20.5164
-20.2945
-20.0803
-19.8736
-19.6742
-19.4817
-19.2963
-19.1177
-18.9459
-18.7807
-18.6219
-18.4696
-18.3236
-18.1839
-18.0502
-17.9227
-17.8013
-17.6859
-17.5764
-17.4729
-17.3753
-17.2836
-17.1978
-17.1179
-17.0439
-16.9759
-16.9139
-16.8578
-16.8079
-16.7641
-16.7265
-16.6952
-16.6703
-16.652
-16.6402
-16.6352
-16.6371
-16.6461
-16.6624
-16.6861
-16.7175
-16.7569
-16.8044
-16.8603
-16.9251
-16.9989
-17.0821
-17.1753
-17.2788
-17.393
-17.5185
-17.6557
-17.8056
-17.9685
-18.1453
-18.3367
-18.5437
-18.7675
-19.0087
-19.2689
-19.5494
-19.8519
-20.178
-20.5294
-20.9086
-21.3184
-21.7615
-22.2409
-22.7609
-23.3261
-23.9425
-24.6152
-25.3527
-26.1643
-27.0623
-28.0592
-29.1736
-30.4283
-31.8537
-33.4886
-35.3851
-37.6186
-40.2963
-43.5827
-47.7219
-53.1282
-60.5058
-71.0903
-86.7764
-1445.21
-1266.85
-1128.19
-1021.99
-939.059
-872.28
-816.813
-769.437
-728.072
-691.258
-658.013
-627.635
-599.61
-573.553
-549.179
-526.262
-504.647
-484.178
-464.76
-446.295
-428.716
-411.959
-395.968
-380.702
-366.11
-352.166
-338.828
-326.066
-313.859
-302.178
-290.996
-280.296
-270.05
-260.235
-250.841
-241.846
-233.227
-224.976
-217.069
-209.494
-202.234
-195.28
-188.614
-182.226
-176.103
-170.233
-164.603
-159.203
-154.027
-149.061
-144.295
-139.723
-135.334
-131.123
-127.08
-123.198
-119.467
-115.887
-112.445
-109.141
-105.963
-102.91
-99.974
-97.1515
-94.4371
-91.8263
-89.3154
-86.8975
-84.5723
-82.3326
-80.1776
-78.1012
-76.1026
-74.176
-72.3208
-70.5331
-68.8093
-67.1485
-65.546
-64.0019
-62.5126
-61.0741
-59.6882
-58.349
-57.0578
-55.8108
-54.6063
-53.4436
-52.3205
-51.2358
-50.1877
-49.1749
-48.1961
-47.2501
-46.3354
-45.451
-44.5961
-43.769
-42.9689
-42.1951
-41.4464
-40.7221