/*--------------------------------*- C++ -*----------------------------------*\
  =========                 |
  \\      /  F ield         | OpenFOAM: The Open Source CFD Toolbox
   \\    /   O peration     | Website:  https://openfoam.org
    \\  /    A nd           | Version:  7
     \\/     M anipulation  |
\*---------------------------------------------------------------------------*/
FoamFile
{
    version     2.0;
    format      ascii;
    class       volScalarField;
    location    "0/dielectric";
    object      voltD;
}
// * * * * * * * * * * * * * * * * * * * * * * * * * * * * * * * * * * * * * //

dimensions      [1 2 -3 0 0 -1 0];

internalField   nonuniform List<scalar> 
127636
(
-1992.22
-2070.64
-2275.21
-2630.84
-3101.87
-3566.66
-3890.55
-4057.23
-4132.1
-4165.43
-4182.21
-4194.71
-4206.62
-4217.89
-4228.48
-4238.33
-4247.38
-4255.57
-4262.85
-4269.17
-4274.46
-1992.22
-2070.72
-2275.6
-2632.45
-3107.45
-3581.29
-3917.63
-4094.4
-4175.15
-4211.49
-4229.91
-4243.69
-4256.9
-4269.48
-4281.38
-4292.54
-4302.89
-4312.39
-4320.96
-4328.56
-4335.11
-1992.22
-2070.79
-2275.99
-2634.04
-3112.95
-3595.76
-3944.61
-4131.7
-4218.51
-4257.98
-4278.1
-4293.22
-4307.77
-4321.71
-4334.97
-4347.5
-4359.22
-4370.07
-4380
-4388.93
-4396.8
-1992.22
-2070.86
-2276.37
-2635.6
-3118.36
-3610.05
-3971.47
-4169.1
-4262.16
-4304.87
-4326.76
-4343.27
-4359.23
-4374.58
-4389.27
-4403.21
-4416.36
-4428.63
-4439.97
-4450.3
-4459.55
-1992.22
-2070.94
-2276.74
-2637.14
-3123.67
-3624.16
-3998.18
-4206.57
-4306.09
-4352.15
-4375.88
-4393.83
-4411.25
-4428.08
-4444.25
-4459.69
-4474.32
-4488.08
-4500.89
-4512.68
-4523.38
-1992.22
-2071.01
-2277.11
-2638.65
-3128.89
-3638.07
-4024.71
-4244.06
-4350.24
-4399.8
-4425.43
-4444.89
-4463.83
-4482.2
-4499.92
-4516.92
-4533.11
-4548.42
-4562.77
-4576.09
-4588.3
-1992.22
-2071.08
-2277.47
-2640.14
-3134.02
-3651.77
-4051.03
-4281.55
-4394.61
-4447.78
-4475.4
-4496.42
-4516.96
-4536.94
-4556.28
-4574.9
-4592.72
-4609.66
-4625.63
-4640.55
-4654.34
-1992.22
-2071.15
-2277.83
-2641.6
-3139.04
-3665.24
-4077.1
-4318.99
-4439.14
-4496.06
-4525.76
-4548.42
-4570.62
-4592.28
-4613.31
-4633.64
-4653.17
-4671.81
-4689.48
-4706.08
-4721.52
-1992.21
-2071.22
-2278.19
-2643.03
-3143.97
-3678.47
-4102.9
-4356.34
-4483.8
-4544.63
-4576.48
-4600.84
-4624.78
-4648.2
-4671.01
-4693.13
-4714.45
-4734.89
-4754.33
-4772.69
-4789.87
-1992.21
-2071.29
-2278.54
-2644.44
-3148.79
-3691.45
-4128.38
-4393.55
-4528.55
-4593.43
-4627.53
-4653.68
-4679.43
-4704.69
-4729.37
-4753.37
-4776.57
-4798.89
-4820.21
-4840.42
-4859.43
-1992.21
-2071.35
-2278.88
-2645.82
-3153.51
-3704.17
-4153.51
-4430.57
-4573.34
-4642.43
-4678.87
-4706.88
-4734.53
-4761.73
-4788.37
-4814.34
-4839.54
-4863.84
-4887.13
-4909.29
-4930.22
-1992.21
-2071.42
-2279.22
-2647.17
-3158.12
-3716.61
-4178.25
-4467.34
-4618.11
-4691.58
-4730.46
-4760.42
-4790.07
-4819.3
-4848
-4876.06
-4903.34
-4929.73
-4955.1
-4979.32
-5002.27
-1992.21
-2071.49
-2279.56
-2648.49
-3162.62
-3728.76
-4202.57
-4503.79
-4662.81
-4740.82
-4782.26
-4814.26
-4846
-4877.37
-4908.24
-4938.49
-4967.99
-4996.59
-5024.16
-5050.56
-5075.64
-1992.21
-2071.55
-2279.89
-2649.79
-3167.01
-3740.6
-4226.41
-4539.87
-4707.36
-4790.1
-4834.2
-4868.34
-4902.28
-4935.9
-4969.07
-5001.64
-5033.48
-5064.43
-5094.33
-5123.02
-5150.37
-1992.21
-2071.62
-2280.21
-2651.06
-3171.28
-3752.14
-4249.74
-4575.5
-4751.68
-4839.34
-4886.23
-4922.61
-4958.86
-4994.85
-5030.45
-5065.49
-5099.81
-5133.25
-5165.62
-5196.77
-5226.5
-1992.2
-2071.68
-2280.53
-2652.3
-3175.44
-3763.34
-4272.53
-4610.61
-4795.71
-4888.46
-4938.27
-4977
-5015.68
-5054.19
-5092.35
-5130.01
-5166.98
-5203.07
-5238.08
-5271.83
-5304.12
-1992.2
-2071.74
-2280.84
-2653.51
-3179.48
-3774.2
-4294.71
-4645.12
-4839.33
-4937.38
-4990.23
-5031.42
-5072.68
-5113.84
-5154.73
-5195.18
-5234.97
-5273.9
-5311.74
-5348.27
-5383.28
-1992.2
-2071.81
-2281.15
-2654.7
-3183.4
-3784.71
-4316.25
-4678.93
-4882.44
-4985.98
-5042.01
-5085.8
-5129.76
-5173.74
-5217.54
-5260.96
-5303.78
-5345.76
-5386.63
-5426.15
-5464.07
-1992.2
-2071.87
-2281.45
-2655.85
-3187.2
-3794.86
-4337.11
-4711.95
-4924.92
-5034.15
-5093.5
-5140.01
-5186.84
-5233.8
-5280.7
-5327.32
-5373.39
-5418.65
-5462.8
-5505.54
-5546.6
-1992.2
-2071.93
-2281.75
-2656.98
-3190.88
-3804.63
-4357.23
-4744.08
-4966.65
-5081.74
-5144.56
-5193.93
-5243.78
-5293.92
-5344.14
-5394.18
-5443.76
-5492.58
-5540.28
-5586.53
-5630.98
-1992.19
-2071.99
-2282.04
-2658.08
-3194.42
-3814.02
-4376.58
-4775.23
-5007.47
-5128.6
-5195.03
-5247.4
-5300.44
-5353.96
-5407.73
-5461.48
-5514.87
-5567.55
-5619.13
-5669.2
-5717.35
-1992.19
-2072.05
-2282.33
-2659.15
-3197.85
-3823
-4395.1
-4805.26
-5047.22
-5174.55
-5244.73
-5300.23
-5356.65
-5413.77
-5471.36
-5529.1
-5586.64
-5643.57
-5699.41
-5753.68
-5805.9
-1992.19
-2072.11
-2282.61
-2660.19
-3201.14
-3831.58
-4412.76
-4834.08
-5085.73
-5219.38
-5293.43
-5352.22
-5412.18
-5473.14
-5534.83
-5596.92
-5659.01
-5720.61
-5781.17
-5840.11
-5896.82
-1992.19
-2072.16
-2282.89
-2661.2
-3204.3
-3839.74
-4429.51
-4861.56
-5122.78
-5262.85
-5340.89
-5403.08
-5466.79
-5531.82
-5597.93
-5664.74
-5731.82
-5798.61
-5864.46
-5928.63
-5990.38
-1992.18
-2072.22
-2283.16
-2662.18
-3207.34
-3847.47
-4445.3
-4887.59
-5158.18
-5304.7
-5386.81
-5452.52
-5520.14
-5589.5
-5660.34
-5732.31
-5804.92
-5877.52
-5949.33
-6019.44
-6086.91
-1992.18
-2072.28
-2283.43
-2663.13
-3210.23
-3854.77
-4460.1
-4912.03
-5191.7
-5344.61
-5430.85
-5500.17
-5571.85
-5645.77
-5721.7
-5799.29
-5878.02
-5957.16
-6035.79
-6112.75
-6186.81
-1992.18
-2072.33
-2283.69
-2664.05
-3213
-3861.62
-4473.87
-4934.76
-5223.09
-5382.28
-5472.63
-5545.6
-5621.46
-5700.14
-5781.49
-5865.2
-5950.73
-6037.31
-6123.81
-6208.8
-6290.62
-1992.18
-2072.39
-2283.94
-2664.94
-3215.63
-3868.03
-4486.56
-4955.67
-5252.1
-5417.32
-5511.71
-5588.31
-5668.4
-5752
-5839.07
-5929.38
-6022.46
-6117.52
-6213.25
-6307.85
-6399.04
-1992.17
-2072.44
-2284.19
-2665.8
-3218.12
-3873.97
-4498.15
-4974.63
-5278.48
-5449.37
-5547.61
-5627.75
-5712.02
-5800.59
-5893.59
-5990.94
-6092.35
-6197.09
-6303.75
-6410.11
-6512.98
-1992.17
-2072.49
-2284.44
-2666.63
-3220.48
-3879.45
-4508.61
-4991.55
-5301.99
-5478.02
-5579.84
-5663.31
-5751.58
-5845.03
-5943.99
-6048.68
-6159.12
-6274.84
-6394.55
-6515.64
-6633.72
-1992.17
-2072.55
-2284.68
-2667.43
-3222.7
-3884.45
-4517.91
-5006.32
-5322.39
-5502.9
-5607.88
-5694.33
-5786.26
-5884.27
-5988.98
-6101.02
-6220.91
-6348.82
-6484.04
-6624.01
-6762.93
-1992.16
-2072.6
-2284.91
-2668.2
-3224.78
-3888.99
-4526.02
-5018.87
-5339.48
-5523.63
-5631.23
-5720.17
-5815.23
-5917.21
-6027.07
-6145.95
-6275.14
-6415.93
-6569.06
-6733.37
-6902.58
-1992.16
-2072.65
-2285.14
-2668.94
-3226.72
-3893.05
-4532.94
-5029.12
-5353.07
-5539.91
-5649.44
-5740.26
-5837.68
-5942.72
-6056.66
-6181.17
-6318.46
-6471.41
-6643.54
-6838.13
-7053.5
-1992.16
-2072.7
-2285.36
-2669.65
-3228.52
-3896.62
-4538.64
-5037.03
-5363.04
-5551.49
-5662.19
-5754.11
-5852.95
-5959.83
-6076.28
-6204.36
-6347.04
-6508.82
-6696.88
-6923.29
-7206.79
-4278.7
-4281.81
-4283.67
-4284.25
-4283.47
-4281.28
-4277.64
-4272.49
-4265.77
-4257.45
-4247.47
-4235.78
-4222.34
-4207.09
-4190
-4171.01
-4150.07
-4127.14
-4102.15
-4075.07
-4045.83
-4014.37
-3980.62
-3944.53
-3906.02
-3865
-3821.41
-3775.14
-3726.11
-3674.2
-3619.3
-3561.29
-3494.51
-3430.66
-3363.29
-3292.21
-3217.22
-3138.07
-3054.51
-2966.22
-2872.85
-2773.96
-2669.06
-2561.43
-2443.48
-2317.29
-2181.63
-2034.86
-1874.7
-1697.84
-1499.12
-1269.79
-992.968
-629.263
-4340.61
-4344.96
-4348.05
-4349.81
-4350.19
-4349.13
-4346.58
-4342.49
-4336.8
-4329.46
-4320.42
-4309.64
-4297.07
-4282.67
-4266.37
-4248.15
-4227.95
-4205.72
-4181.4
-4154.96
-4126.32
-4095.43
-4062.24
-4026.66
-3988.64
-3948.08
-3904.92
-3859.06
-3810.4
-3758.83
-3704.26
-3646.54
-3579.17
-3515.54
-3448.35
-3377.42
-3302.55
-3223.5
-3140.02
-3051.8
-2958.51
-2859.72
-2754.96
-2646.68
-2528.97
-2403.18
-2268.22
-2122.62
-1964.46
-1791.07
-1598.72
-1382.11
-1134.61
-854.712
-4403.62
-4409.27
-4413.63
-4416.63
-4418.22
-4418.34
-4416.93
-4413.94
-4409.31
-4403
-4394.96
-4385.13
-4373.48
-4359.95
-4344.51
-4327.1
-4307.67
-4286.19
-4262.59
-4236.83
-4208.85
-4178.6
-4146.01
-4111.02
-4073.55
-4033.53
-3990.88
-3945.51
-3897.32
-3846.21
-3792.07
-3734.77
-3666.92
-3603.65
-3536.8
-3466.2
-3391.66
-3312.95
-3229.83
-3142
-3049.15
-2950.89
-2846.79
-2738.45
-2621.75
-2497.37
-2364.38
-2221.69
-2067.89
-1901.31
-1720.09
-1522.66
-1309.81
-1090.45
-4467.74
-4474.75
-4480.43
-4484.74
-4487.59
-4488.94
-4488.72
-4486.88
-4483.36
-4478.12
-4471.11
-4462.28
-4451.59
-4438.98
-4424.43
-4407.87
-4389.27
-4368.57
-4345.74
-4320.72
-4293.46
-4263.89
-4231.97
-4197.62
-4160.78
-4121.37
-4079.31
-4034.52
-3986.9
-3936.34
-3882.74
-3825.98
-3757.76
-3694.99
-3628.65
-3558.56
-3484.56
-3406.41
-3323.91
-3236.76
-3144.69
-3047.36
-2944.39
-2836.51
-2721.49
-2599.32
-2469.35
-2330.8
-2182.9
-2024.89
-1856.41
-1678.19
-1493.52
-1310.66
-4532.99
-4541.42
-4548.5
-4554.16
-4558.33
-4560.95
-4561.97
-4561.33
-4558.98
-4554.85
-4548.92
-4541.13
-4531.43
-4519.79
-4506.16
-4490.5
-4472.76
-4452.9
-4430.88
-4406.64
-4380.14
-4351.32
-4320.12
-4286.49
-4250.34
-4211.62
-4170.23
-4126.1
-4079.14
-4029.24
-3976.29
-3920.19
-3851.7
-3789.57
-3723.89
-3654.49
-3581.21
-3503.84
-3422.18
-3335.99
-3245.01
-3148.95
-3047.5
-2940.51
-2827.71
-2708.37
-2582.07
-2448.42
-2307.1
-2158.09
-2001.91
-1840.21
-1676.51
-1516.81
-4599.41
-4609.33
-4617.85
-4624.92
-4630.47
-4634.43
-4636.74
-4637.35
-4636.19
-4633.23
-4628.41
-4621.7
-4613.04
-4602.4
-4589.74
-4575.01
-4558.18
-4539.2
-4518.03
-4494.63
-4468.94
-4440.91
-4410.5
-4377.63
-4342.25
-4304.27
-4263.64
-4220.26
-4174.04
-4124.9
-4072.72
-4017.39
-3948.72
-3887.37
-3822.49
-3753.95
-3681.57
-3605.17
-3524.57
-3439.56
-3349.92
-3255.42
-3155.8
-3050.07
-2939.86
-2823.74
-2701.5
-2573.03
-2438.39
-2297.95
-2152.7
-2004.43
-1856.18
-1712.15
-4667.02
-4678.49
-4688.53
-4697.08
-4704.06
-4709.4
-4713.05
-4714.95
-4715.05
-4713.29
-4709.63
-4704.03
-4696.45
-4686.85
-4675.19
-4661.43
-4645.54
-4627.48
-4607.21
-4584.68
-4559.85
-4532.68
-4503.1
-4471.06
-4436.5
-4399.35
-4359.54
-4316.99
-4271.61
-4223.31
-4172
-4117.55
-4048.8
-3988.36
-3924.43
-3856.88
-3785.56
-3710.31
-3630.96
-3547.34
-3459.26
-3366.53
-3268.98
-3164.75
-3057.36
-2944.65
-2826.6
-2703.28
-2574.99
-2442.32
-2306.36
-2168.81
-2032.08
-1899.18
-4735.85
-4748.94
-4760.56
-4770.65
-4779.12
-4785.91
-4790.96
-4794.2
-4795.59
-4795.08
-4792.62
-4788.17
-4781.7
-4773.17
-4762.54
-4749.79
-4734.88
-4717.78
-4698.44
-4676.83
-4652.9
-4626.62
-4597.93
-4566.78
-4533.1
-4496.85
-4457.93
-4416.29
-4371.83
-4324.47
-4274.12
-4220.66
-4151.93
-4092.51
-4029.66
-3963.24
-3893.13
-3819.17
-3741.23
-3659.16
-3572.81
-3482.03
-3386.7
-3284.15
-3179.69
-3070.46
-2956.53
-2838.11
-2715.63
-2589.76
-2461.57
-2332.53
-2204.56
-2079.81
-4805.93
-4820.71
-4834
-4845.69
-4855.72
-4864.01
-4870.5
-4875.14
-4877.86
-4878.63
-4877.4
-4874.14
-4868.81
-4861.39
-4851.83
-4840.12
-4826.22
-4810.1
-4791.73
-4771.07
-4748.09
-4722.75
-4695
-4664.79
-4632.06
-4596.75
-4558.8
-4518.14
-4474.68
-4428.35
-4379.05
-4326.69
-4258.05
-4199.78
-4138.12
-4072.96
-4004.18
-3931.66
-3855.26
-3774.87
-3690.37
-3601.66
-3508.65
-3407.86
-3306.37
-3200.54
-3090.54
-2976.67
-2859.38
-2739.37
-2617.61
-2495.34
-2374.07
-2255.44
-4877.29
-4893.86
-4908.87
-4922.24
-4933.89
-4943.74
-4951.73
-4957.8
-4961.91
-4964
-4964.04
-4961.99
-4957.83
-4951.54
-4943.08
-4932.43
-4919.56
-4904.46
-4887.09
-4867.43
-4845.43
-4821.07
-4794.3
-4765.08
-4733.35
-4699.06
-4662.14
-4622.53
-4580.15
-4534.93
-4486.77
-4435.59
-4367.15
-4310.12
-4249.76
-4185.97
-4118.64
-4047.66
-3972.92
-3894.32
-3811.77
-3725.19
-3634.55
-3535.58
-3436.99
-3334.43
-3228.12
-3118.36
-3005.65
-2890.63
-2774.15
-2657.27
-2541.18
-2427.18
-4949.98
-4968.41
-4985.24
-5000.36
-5013.69
-5025.16
-5034.7
-5042.26
-5047.78
-5051.22
-5052.56
-5051.76
-5048.8
-5043.65
-5036.31
-5026.74
-5014.94
-5000.88
-4984.54
-4965.9
-4944.92
-4921.58
-4895.83
-4867.64
-4836.97
-4803.74
-4767.92
-4729.43
-4688.2
-4644.17
-4597.23
-4547.32
-4479.14
-4423.46
-4364.5
-4302.18
-4236.41
-4167.07
-4094.08
-4017.35
-3936.81
-3852.41
-3764.14
-3666.98
-3571.2
-3471.74
-3368.82
-3262.76
-3154.03
-3043.22
-2931.07
-2818.47
-2706.39
-2595.86
-5024.03
-5044.43
-5063.15
-5080.1
-5095.19
-5108.34
-5119.48
-5128.56
-5135.54
-5140.37
-5143.03
-5143.49
-5141.74
-5137.77
-5131.56
-5123.1
-5112.37
-5099.37
-5084.08
-5066.49
-5046.55
-5024.26
-4999.58
-4972.47
-4942.9
-4910.8
-4876.12
-4838.82
-4798.81
-4756.03
-4710.41
-4661.85
-4594.02
-4539.77
-4482.3
-4421.55
-4357.41
-4289.8
-4218.64
-4143.85
-4065.37
-3983.17
-3897.25
-3801.87
-3708.79
-3612.22
-3512.39
-3409.62
-3304.33
-3197.05
-3088.43
-2979.21
-2870.2
-2762.25
-5099.5
-5121.96
-5142.67
-5161.53
-5178.44
-5193.33
-5206.13
-5216.78
-5225.24
-5231.48
-5235.49
-5237.23
-5236.71
-5233.92
-5228.85
-5221.5
-5211.87
-5199.95
-5185.72
-5169.19
-5150.33
-5129.12
-5105.54
-5079.55
-5051.11
-5020.18
-4986.72
-4950.66
-4911.93
-4870.49
-4826.24
-4779.12
-4711.7
-4658.96
-4603.08
-4543.97
-4481.56
-4415.76
-4346.49
-4273.69
-4197.3
-4117.31
-4033.7
-3940.05
-3849.53
-3755.66
-3658.64
-3558.78
-3456.44
-3352.11
-3246.33
-3139.75
-3033.04
-2926.92
-5176.45
-5201.08
-5223.87
-5244.73
-5263.54
-5280.23
-5294.73
-5306.98
-5316.96
-5324.64
-5329.99
-5333.03
-5333.74
-5332.13
-5328.21
-5321.98
-5313.44
-5302.6
-5289.46
-5274.01
-5256.24
-5236.14
-5213.68
-5188.84
-5161.59
-5131.88
-5099.67
-5064.91
-5027.53
-4987.48
-4944.69
-4899.07
-4832.16
-4781.02
-4726.79
-4669.42
-4608.81
-4544.88
-4477.56
-4406.79
-4332.53
-4254.73
-4173.41
-4081.42
-3993.35
-3901.98
-3807.51
-3710.2
-3610.39
-3508.49
-3404.99
-3300.42
-3195.37
-3090.45
-5254.94
-5281.85
-5306.84
-5329.78
-5350.57
-5369.11
-5385.36
-5399.25
-5410.77
-5419.89
-5426.61
-5430.94
-5432.88
-5432.45
-5429.67
-5424.55
-5417.11
-5407.36
-5395.3
-5380.94
-5364.27
-5345.29
-5323.99
-5300.33
-5274.29
-5245.84
-5214.94
-5181.53
-5145.56
-5106.97
-5065.7
-5021.66
-4955.3
-4905.84
-4853.35
-4797.78
-4739.05
-4677.06
-4611.76
-4543.07
-4470.94
-4395.34
-4316.27
-4225.9
-4140.14
-4051.1
-3958.94
-3863.89
-3766.24
-3666.33
-3564.6
-3461.51
-3357.56
-3253.31
-5335.04
-5364.38
-5391.67
-5416.79
-5439.62
-5460.09
-5478.13
-5493.69
-5506.75
-5517.32
-5525.4
-5531.01
-5534.17
-5534.91
-5533.25
-5529.23
-5522.88
-5514.2
-5503.22
-5489.96
-5474.4
-5456.56
-5436.42
-5413.98
-5389.19
-5362.04
-5332.48
-5300.48
-5265.97
-5228.9
-5189.21
-5146.83
-5081.11
-5033.4
-4982.73
-4929.04
-4872.25
-4812.28
-4749.05
-4682.48
-4612.52
-4539.13
-4462.28
-4373.48
-4289.94
-4203.08
-4113.03
-4019.97
-3924.15
-3825.86
-3725.47
-3623.38
-3520.06
-3415.97
-5416.86
-5448.75
-5478.47
-5505.87
-5530.84
-5553.28
-5573.14
-5590.38
-5605.01
-5617.02
-5626.44
-5633.31
-5637.66
-5639.54
-5638.98
-5636.04
-5630.75
-5623.13
-5613.23
-5601.05
-5586.61
-5569.92
-5550.96
-5529.74
-5506.24
-5480.42
-5452.25
-5421.7
-5388.7
-5353.22
-5315.18
-5274.51
-5209.49
-5163.6
-5114.83
-5063.1
-5008.33
-4950.44
-4889.35
-4824.96
-4757.21
-4686.04
-4611.41
-4524.13
-4442.75
-4357.95
-4269.84
-4178.55
-4084.29
-3987.29
-3887.87
-3786.38
-3683.22
-3578.86
-5500.49
-5535.1
-5567.39
-5597.17
-5624.34
-5648.81
-5670.53
-5689.47
-5705.64
-5719.07
-5729.8
-5737.89
-5743.4
-5746.38
-5746.89
-5744.99
-5740.73
-5734.16
-5725.3
-5714.2
-5700.87
-5685.33
-5667.57
-5647.59
-5625.39
-5600.93
-5574.19
-5545.13
-5513.71
-5479.86
-5443.53
-5404.66
-5340.41
-5296.42
-5249.62
-5199.93
-5147.27
-5091.54
-5032.65
-4970.5
-4905.02
-4836.11
-4763.71
-4677.95
-4598.66
-4515.85
-4429.55
-4339.87
-4246.93
-4150.95
-4052.16
-3950.9
-3847.52
-3742.44
-5586.05
-5623.57
-5658.56
-5690.85
-5720.3
-5746.84
-5770.43
-5791.06
-5808.75
-5823.56
-5835.56
-5844.82
-5851.43
-5855.45
-5856.98
-5856.07
-5852.81
-5847.24
-5839.41
-5829.37
-5817.14
-5802.74
-5786.18
-5767.46
-5746.58
-5723.51
-5698.24
-5670.71
-5640.9
-5608.75
-5574.2
-5537.18
-5473.78
-5431.77
-5387.02
-5339.45
-5288.98
-5235.5
-5178.9
-5119.08
-5055.92
-4989.33
-4919.22
-4834.98
-4757.79
-4676.91
-4592.35
-4504.13
-4412.35
-4317.15
-4218.72
-4117.35
-4013.35
-3907.15
-5673.7
-5714.32
-5752.18
-5787.09
-5818.91
-5847.56
-5873.02
-5895.31
-5914.48
-5930.62
-5943.81
-5954.17
-5961.8
-5966.8
-5969.27
-5969.3
-5966.98
-5962.37
-5955.54
-5946.53
-5935.38
-5922.11
-5906.75
-5889.3
-5869.76
-5848.1
-5824.32
-5798.37
-5770.22
-5739.82
-5707.1
-5672.01
-5609.53
-5569.58
-5526.97
-5481.62
-5433.43
-5382.29
-5328.08
-5270.67
-5209.95
-5145.76
-5078
-4995.31
-4920.25
-4841.31
-4758.45
-4671.64
-4580.88
-4486.28
-4387.96
-4286.16
-4181.19
-4073.44
-5763.63
-5807.58
-5848.49
-5886.14
-5920.39
-5951.17
-5978.49
-6002.39
-6022.97
-6040.34
-6054.63
-6065.99
-6074.55
-6080.44
-6083.77
-6084.67
-6083.23
-6079.53
-6073.64
-6065.63
-6055.53
-6043.39
-6029.22
-6013.04
-5994.84
-5974.63
-5952.36
-5928.03
-5901.59
-5872.99
-5842.17
-5809.07
-5747.6
-5709.78
-5669.4
-5626.36
-5580.56
-5531.87
-5480.16
-5425.29
-5367.11
-5305.44
-5240.14
-5159.08
-5086.23
-5009.3
-4928.17
-4842.73
-4752.94
-4658.79
-4560.38
-4457.89
-4351.57
-4241.84
-5856.04
-5903.6
-5947.76
-5988.28
-6025.02
-6057.94
-6087.06
-6112.49
-6134.37
-6152.85
-6168.12
-6180.36
-6189.73
-6196.39
-6200.49
-6202.17
-6201.53
-6198.67
-6193.68
-6186.62
-6177.55
-6166.51
-6153.52
-6138.61
-6121.77
-6103
-6082.29
-6059.61
-6034.92
-6008.17
-5979.31
-5948.27
-5887.88
-5852.3
-5814.23
-5773.61
-5730.31
-5684.19
-5635.12
-5582.92
-5527.42
-5468.43
-5405.74
-5326.42
-5255.92
-5181.1
-5101.78
-5017.78
-4928.94
-4835.19
-4736.53
-4633.07
-4525.07
-4412.91
-5951.22
-6002.7
-6050.33
-6093.85
-6133.13
-6168.14
-6198.99
-6225.82
-6248.85
-6268.29
-6284.37
-6297.33
-6307.37
-6314.67
-6319.42
-6321.77
-6321.84
-6319.75
-6315.59
-6309.44
-6301.36
-6291.39
-6279.57
-6265.92
-6250.45
-6233.15
-6214.01
-6193.01
-6170.11
-6145.27
-6118.43
-6089.53
-6030.31
-5997.03
-5961.39
-5923.29
-5882.61
-5839.2
-5792.91
-5743.54
-5690.91
-5634.77
-5574.89
-5497.48
-5429.52
-5357.01
-5279.67
-5197.23
-5109.42
-5016.06
-4917.06
-4812.42
-4702.38
-4587.3
-6049.52
-6105.29
-6156.64
-6203.28
-6245.09
-6282.13
-6314.55
-6342.61
-6366.58
-6386.76
-6403.46
-6416.95
-6427.48
-6435.27
-6440.53
-6443.43
-6444.11
-6442.71
-6439.31
-6434.01
-6426.87
-6417.95
-6407.28
-6394.89
-6380.78
-6364.96
-6347.42
-6328.13
-6307.06
-6284.18
-6259.42
-6232.73
-6174.76
-6143.89
-6110.77
-6075.31
-6037.39
-5996.83
-5953.48
-5907.14
-5857.56
-5804.51
-5747.69
-5672.38
-5607.23
-5537.29
-5462.2
-5381.55
-5294.95
-5202.08
-5102.69
-4996.71
-4884.27
-4765.75
-6151.37
-6211.88
-6267.23
-6317.09
-6361.4
-6400.31
-6434.09
-6463.1
-6487.74
-6508.41
-6525.47
-6539.26
-6550.07
-6558.17
-6563.79
-6567.1
-6568.29
-6567.47
-6564.76
-6560.25
-6554.01
-6546.1
-6536.56
-6525.41
-6512.67
-6498.34
-6482.41
-6464.87
-6445.67
-6424.79
-6402.18
-6377.76
-6321.14
-6292.76
-6262.27
-6229.58
-6194.54
-6157
-6116.78
-6073.65
-6027.38
-5977.67
-5924.2
-5851.27
-5789.26
-5722.27
-5649.79
-5571.28
-5486.2
-5394.03
-5294.35
-5186.91
-5071.73
-4949.17
-6257.36
-6323.16
-6382.81
-6435.95
-6482.63
-6523.14
-6557.95
-6587.56
-6612.53
-6633.34
-6650.45
-6664.27
-6675.13
-6683.34
-6689.13
-6692.72
-6694.28
-6693.95
-6691.84
-6688.06
-6682.67
-6675.74
-6667.3
-6657.38
-6646
-6633.17
-6618.87
-6603.1
-6585.82
-6566.99
-6546.57
-6524.5
-6469.32
-6443.53
-6415.78
-6385.97
-6353.97
-6319.61
-6282.7
-6243.02
-6200.31
-6154.24
-6104.46
-6034.25
-5975.81
-5912.21
-5842.84
-5766.99
-5683.9
-5592.83
-5493.08
-5384.18
-5265.96
-5138.69
-6368.26
-6440.04
-6504.28
-6560.67
-6609.45
-6651.16
-6686.52
-6716.25
-6741.08
-6761.62
-6778.43
-6791.96
-6802.6
-6810.69
-6816.47
-6820.18
-6821.98
-6822.04
-6820.45
-6817.33
-6812.74
-6806.74
-6799.38
-6790.68
-6780.66
-6769.33
-6756.68
-6742.7
-6727.36
-6710.63
-6692.46
-6672.8
-6619.16
-6596.05
-6571.14
-6544.34
-6515.53
-6484.52
-6451.14
-6415.15
-6376.27
-6334.18
-6288.48
-6221.37
-6167.01
-6107.4
-6041.78
-5969.27
-5888.87
-5799.52
-5700.18
-5589.99
-5468.46
-5335.74
-6485.14
-6563.75
-6632.87
-6692.31
-6742.69
-6784.96
-6820.19
-6849.4
-6873.52
-6893.29
-6909.37
-6922.27
-6932.41
-6940.13
-6945.7
-6949.36
-6951.28
-6951.61
-6950.46
-6947.93
-6944.08
-6938.98
-6932.67
-6925.17
-6916.51
-6906.68
-6895.69
-6883.53
-6870.17
-6855.57
-6839.71
-6822.53
-6770.51
-6750.18
-6728.22
-6704.56
-6679.07
-6651.6
-6621.95
-6589.89
-6555.15
-6517.39
-6476.2
-6412.65
-6362.96
-6308.02
-6246.96
-6178.7
-6101.96
-6015.3
-5917.18
-5806.17
-5681.25
-5542.22
-6609.54
-6696.09
-6770.23
-6832.2
-6883.3
-6925.14
-6959.32
-6987.19
-7009.89
-7028.33
-7043.21
-7055.09
-7064.4
-7071.51
-7076.68
-7080.13
-7082.03
-7082.53
-7081.73
-7079.72
-7076.57
-7072.33
-7067.04
-7060.73
-7053.41
-7045.09
-7035.78
-7025.45
-7014.09
-7001.67
-6988.16
-6973.51
-6923.23
-6905.74
-6886.83
-6866.43
-6844.41
-6820.64
-6794.93
-6767.06
-6736.76
-6703.71
-6667.48
-6607.99
-6563.63
-6514.18
-6458.65
-6395.8
-6324.05
-6241.5
-6145.95
-6035.11
-5907
-5760.76
-6743.82
-6839.71
-6918.63
-6981.96
-7032.3
-7072.29
-7104.16
-7129.67
-7150.15
-7166.6
-7179.77
-7190.23
-7198.41
-7204.65
-7209.21
-7212.29
-7214.05
-7214.62
-7214.09
-7212.54
-7210.04
-7206.62
-7202.34
-7197.2
-7191.22
-7184.42
-7176.78
-7168.31
-7158.98
-7148.77
-7137.65
-7125.59
-7077.12
-7062.56
-7046.79
-7029.76
-7011.35
-6991.44
-6969.86
-6946.42
-6920.87
-6892.89
-6862.09
-6807.2
-6768.89
-6725.82
-6676.96
-6620.93
-6555.9
-6479.47
-6388.65
-6279.86
-6149.5
-5995.17
-6891.93
-6998.74
-7081.19
-7143.52
-7190.71
-7226.81
-7254.79
-7276.72
-7294.06
-7307.84
-7318.78
-7327.43
-7334.18
-7339.32
-7343.09
-7345.66
-7347.16
-7347.7
-7347.37
-7346.23
-7344.33
-7341.72
-7338.4
-7334.42
-7329.78
-7324.49
-7318.54
-7311.94
-7304.66
-7296.69
-7288
-7278.57
-7232.01
-7220.45
-7207.9
-7194.33
-7179.65
-7163.75
-7146.49
-7127.7
-7107.16
-7084.61
-7059.69
-7009.95
-6978.4
-6942.67
-6901.73
-6854.16
-6797.99
-6730.44
-6647.64
-6544.35
-6414.19
-6251.39
-7061.28
-7179.9
-7261.99
-7318.83
-7359.19
-7388.71
-7410.9
-7427.94
-7441.21
-7451.65
-7459.89
-7466.37
-7471.41
-7475.25
-7478.06
-7479.99
-7481.14
-7481.59
-7481.39
-7480.61
-7479.29
-7477.43
-7475.08
-7472.25
-7468.94
-7465.16
-7460.9
-7456.18
-7450.97
-7445.26
-7439.03
-7432.27
-7387.71
-7379.19
-7369.93
-7359.91
-7349.06
-7337.29
-7324.5
-7310.55
-7295.28
-7278.46
-7259.83
-7215.76
-7191.68
-7164.2
-7132.45
-7095.1
-7050.27
-6995.08
-6925.06
-6833.26
-6709.14
-6539.52
-7268.34
-7394.23
-7465.74
-7509.12
-7537.5
-7557.28
-7571.7
-7582.57
-7590.94
-7597.47
-7602.59
-7606.6
-7609.72
-7612.09
-7613.84
-7615.03
-7615.75
-7616.05
-7615.95
-7615.5
-7614.71
-7613.61
-7612.2
-7610.5
-7608.52
-7606.25
-7603.7
-7600.86
-7597.73
-7594.3
-7590.55
-7586.48
-7543.99
-7538.57
-7532.65
-7526.24
-7519.3
-7511.76
-7503.56
-7494.61
-7484.79
-7473.96
-7461.94
-7424.01
-7407.97
-7389.57
-7368.15
-7342.72
-7311.76
-7272.82
-7221.76
-7151.01
-7045.91
-6878.89
-7557.97
-7657.93
-7695.02
-7713.02
-7723.64
-7730.7
-7735.73
-7739.47
-7742.34
-7744.56
-7746.3
-7747.66
-7748.71
-7749.52
-7750.11
-7750.51
-7750.76
-7750.86
-7750.83
-7750.68
-7750.42
-7750.06
-7749.59
-7749.02
-7748.36
-7747.61
-7746.75
-7745.81
-7744.76
-7743.62
-7742.37
-7741.01
-7700.66
-7698.35
-7695.81
-7693.06
-7690.07
-7686.83
-7683.3
-7679.45
-7675.22
-7670.54
-7665.35
-7633.93
-7626.36
-7617.64
-7607.43
-7595.25
-7580.27
-7561.16
-7535.46
-7498.14
-7436.74
-7311.58
-118.153
-50.7015
-39.8108
-34.4409
-31.0022
-28.5085
-26.5602
-24.9601
-23.5985
-22.409
-21.3489
-20.3895
-19.5107
-18.6982
-17.9399
-17.2307
-16.5641
-15.9329
-15.3346
-14.7662
-14.2248
-13.7087
-13.2159
-12.7449
-12.2943
-11.863
-11.4499
-11.054
-10.6745
-10.3104
-9.96122
-9.62612
-9.30446
-8.99558
-8.69898
-8.41406
-8.14028
-7.87719
-7.6243
-7.38114
-7.14734
-6.92242
-6.70604
-6.49783
-6.29742
-6.10447
-5.91869
-5.73976
-5.56738
-5.40129
-5.24124
-5.08693
-4.93816
-4.79469
-4.6563
-4.5228
-4.39398
-4.26964
-4.14963
-4.03376
-3.92186
-3.81379
-3.70941
-3.60856
-3.51111
-3.41694
-3.32591
-3.23792
-3.15285
-3.07061
-2.99107
-2.91416
-2.83976
-2.7678
-2.6982
-2.63086
-2.56571
-2.50268
-2.44169
-2.38267
-2.32556
-2.2703
-2.21682
-2.16507
-2.11499
-2.06652
-2.01961
-1.97421
-1.93027
-1.88775
-1.8466
-1.80677
-1.76822
-1.73092
-1.69482
-1.65988
-1.62607
-1.59334
-1.56167
-1.53102
-1.50135
-1.47265
-1.44487
-1.41797
-1.39195
-1.36677
-1.3424
-1.31871
-2.58632
-2.54232
-2.4997
-2.45849
-2.41861
-2.38001
-2.34262
-2.30648
-2.27151
-2.23767
-2.20491
-2.17322
-2.14258
-2.11295
-2.08429
-2.05655
-2.02976
-2.00387
-1.97885
-1.95465
-1.93131
-1.90877
-1.88703
-1.86603
-1.84579
-1.8263
-1.80753
-1.78944
-1.77205
-1.75535
-1.73931
-1.72393
-1.70918
-1.69507
-1.6816
-1.66874
-1.65649
-1.64485
-1.63382
-1.62339
-1.61354
-1.6043
-1.59564
-1.58758
-1.58012
-1.57323
-1.56696
-1.56128
-1.55621
-1.55174
-1.54789
-1.54467
-1.54209
-1.54014
-1.53886
-1.53824
-1.53831
-1.53908
-1.54057
-1.54279
-1.54578
-1.54955
-1.55414
-1.55955
-1.56584
-1.57304
-1.58117
-1.5903
-1.60044
-1.61166
-1.62402
-1.63757
-1.65237
-1.66849
-1.68603
-1.70507
-1.72569
-1.74802
-1.77217
-1.7983
-1.82655
-1.85708
-1.8901
-1.92587
-1.96463
-2.00666
-2.05235
-2.10209
-2.15646
-2.21592
-2.28122
-2.35324
-2.43312
-2.522
-2.62165
-2.73422
-2.8626
-3.01057
-3.18331
-3.38845
-3.63729
-3.94805
-4.35035
-4.90128
-5.72533
-7.18468
-11.1121
-586.085
-427.733
-351.139
-307.055
-277.518
-255.695
-238.466
-224.236
-212.096
-201.456
-191.963
-183.366
-175.477
-168.182
-161.383
-155.014
-149.008
-143.341
-137.958
-132.846
-127.978
-123.333
-118.904
-114.67
-110.613
-106.731
-103.02
-99.4581
-96.0437
-92.7691
-89.6249
-86.6103
-83.7164
-80.9355
-78.2711
-75.7058
-73.2415
-70.8741
-68.5988
-66.413
-64.311
-62.2874
-60.3391
-58.4643
-56.6628
-54.9268
-53.2567
-51.6442
-50.0933
-48.6003
-47.1598
-45.7707
-44.4333
-43.1426
-41.896
-40.6953
-39.5363
-38.4186
-37.3378
-36.2972
-35.2894
-34.3171
-33.3779
-32.4704
-31.5944
-30.7471
-29.9273
-29.1346
-28.3695
-27.6295
-26.9152
-26.2225
-25.5531
-24.905
-24.2793
-23.6734
-23.0872
-22.5201
-21.9718
-21.4397
-20.9259
-20.4292
-19.9485
-19.4828
-19.0317
-18.5955
-18.1735
-17.765
-17.3692
-16.987
-16.6166
-16.2584
-15.9114
-15.5763
-15.2506
-14.9366
-14.6328
-14.3376
-14.053
-13.7772
-13.5099
-13.2523
-13.002
-12.7603
-12.5259
-12.2993
-12.0799
-11.8673
-12.9294
-12.7095
-12.4964
-12.2904
-12.0911
-11.8981
-11.7112
-11.5306
-11.3557
-11.1866
-11.0228
-10.8644
-10.7113
-10.5632
-10.4199
-10.2812
-10.1473
-10.0179
-9.89284
-9.77189
-9.6552
-9.54255
-9.43384
-9.3289
-9.22773
-9.13028
-9.03642
-8.94604
-8.85911
-8.77561
-8.69544
-8.61854
-8.54478
-8.47428
-8.40691
-8.34265
-8.28141
-8.22322
-8.16806
-8.1159
-8.06669
-8.02045
-7.97719
-7.93689
-7.89955
-7.86514
-7.83376
-7.80537
-7.78
-7.75765
-7.73842
-7.72231
-7.70936
-7.69964
-7.69319
-7.6901
-7.69042
-7.69424
-7.70167
-7.71277
-7.72767
-7.74649
-7.76938
-7.79644
-7.82784
-7.86376
-7.90441
-7.94997
-8.00064
-8.05669
-8.11841
-8.18608
-8.25999
-8.34052
-8.42807
-8.52319
-8.62617
-8.73765
-8.85824
-8.98869
-9.12974
-9.28215
-9.44701
-9.62556
-9.81901
-10.0288
-10.2567
-10.5049
-10.776
-11.0725
-11.3981
-11.757
-12.1548
-12.5974
-13.0932
-13.6529
-14.2905
-15.0245
-15.8798
-16.893
-18.1178
-19.6389
-21.5905
-24.2194
-28.0134
-34.0838
-45.1798
-890.257
-738.862
-637.126
-567.759
-517.509
-478.886
-447.745
-421.688
-399.249
-379.49
-361.784
-345.694
-330.917
-317.223
-304.444
-292.455
-281.158
-270.47
-260.335
-250.7
-241.522
-232.769
-224.409
-216.418
-208.772
-201.452
-194.44
-187.719
-181.278
-175.099
-169.17
-163.481
-158.02
-152.776
-147.741
-142.903
-138.255
-133.788
-129.494
-125.365
-121.396
-117.577
-113.903
-110.368
-106.965
-103.689
-100.534
-97.4955
-94.5683
-91.7481
-89.0302
-86.4097
-83.8833
-81.4471
-79.097
-76.8299
-74.6423
-72.5306
-70.4925
-68.5247
-66.6243
-64.789
-63.0161
-61.3032
-59.6484
-58.0486
-56.5027
-55.0082
-53.5636
-52.1664
-50.8155
-49.5091
-48.2455
-47.0232
-45.8409
-44.6971
-43.5905
-42.5198
-41.4838
-40.4813
-39.5113
-38.5726
-37.6642
-36.7851
-35.9344
-35.111
-34.3142
-33.543
-32.7966
-32.0744
-31.3753
-30.6988
-30.044
-29.4104
-28.7971
-28.2035
-27.6292
-27.0733
-26.5353
-26.0146
-25.5107
-25.0231
-24.5512
-24.0943
-23.6524
-23.2246
-22.8105
-22.4097
-23.2659
-22.8702
-22.4869
-22.1163
-21.7577
-21.4106
-21.0744
-20.7494
-20.4349
-20.1306
-19.836
-19.551
-19.2755
-19.009
-18.7513
-18.5018
-18.2609
-18.028
-17.803
-17.5854
-17.3755
-17.1728
-16.9772
-16.7884
-16.6064
-16.431
-16.2622
-16.0995
-15.9431
-15.7929
-15.6486
-15.5102
-15.3775
-15.2507
-15.1294
-15.0138
-14.9036
-14.7989
-14.6996
-14.6057
-14.5172
-14.4339
-14.3561
-14.2835
-14.2163
-14.1544
-14.0979
-14.0467
-14.001
-13.9608
-13.9261
-13.8971
-13.8737
-13.8562
-13.8445
-13.8389
-13.8394
-13.8462
-13.8594
-13.8793
-13.906
-13.9398
-13.9809
-14.0294
-14.0858
-14.1503
-14.2232
-14.305
-14.396
-14.4966
-14.6075
-14.729
-14.8616
-15.0062
-15.1634
-15.3342
-15.519
-15.7191
-15.9355
-16.1696
-16.4226
-16.6961
-16.9917
-17.3119
-17.6587
-18.0346
-18.4429
-18.8873
-19.3727
-19.903
-20.485
-21.1261
-21.8362
-22.6251
-23.5077
-24.5021
-25.6326
-26.93
-28.4359
-30.2103
-32.3386
-34.9518
-38.2444
-42.5464
-48.419
-56.8463
-69.3381
-1143.2
-1003.47
-894.994
-812.068
-747.466
-695.575
-652.585
-615.955
-584.047
-555.709
-530.165
-506.86
-485.389
-465.445
-446.803
-429.283
-412.762
-397.117
-382.27
-368.146
-354.689
-341.851
-329.587
-317.863
-306.64
-295.899
-285.606
-275.738
-266.279
-257.208
-248.503
-240.152
-232.133
-224.431
-217.036
-209.934
-203.106
-196.549
-190.243
-184.18
-178.348
-172.74
-167.344
-162.152
-157.154
-152.344
-147.711
-143.247
-138.949
-134.808
-130.814
-126.966
-123.254
-119.676
-116.225
-112.895
-109.68
-106.579
-103.584
-100.694
-97.9016
-95.2058
-92.6011
-90.0848
-87.6533
-85.3036
-83.0332
-80.8368
-78.715
-76.6619
-74.6779
-72.7578
-70.9019
-69.1055
-67.3686
-65.6885
-64.0621
-62.4895
-60.9667
-59.4943
-58.0697
-56.6893
-55.3554
-54.063
-52.8133
-51.6036
-50.4323
-49.2992
-48.2025
-47.1412
-46.1141
-45.12
-44.1579
-43.2269
-42.3257
-41.4536
-40.6098
-39.793
-39.0024
-38.2374
-37.497
-36.7805
-36.087