/*--------------------------------*- C++ -*----------------------------------*\
| =========                 |                                                 |
| \\      /  F ield         | OpenFOAM: The Open Source CFD Toolbox           |
|  \\    /   O peration     | Version:  2406                                  |
|   \\  /    A nd           | Website:  www.openfoam.com                      |
|    \\/     M anipulation  |                                                 |
\*---------------------------------------------------------------------------*/
FoamFile
{
    version     2.0;
    format      ascii;
    arch        "LSB;label=32;scalar=64";
    class       volScalarField;
    location    "5e-05/encapsulator";
    object      voltExt;
}
// * * * * * * * * * * * * * * * * * * * * * * * * * * * * * * * * * * * * * //

dimensions      [1 2 -3 0 0 -1 0];

internalField   nonuniform List<scalar> 
26298
(
2.251082849e-11
2.215075628e-11
2.173964072e-11
2.13923101e-11
2.113247726e-11
2.094955396e-11
2.082498992e-11
2.074178608e-11
2.068684969e-11
2.065083547e-11
2.062522038e-11
2.060238131e-11
2.057940026e-11
2.055627753e-11
2.301973077e-11
2.27507358e-11
2.239217843e-11
2.206255803e-11
2.180444622e-11
2.161800793e-11
2.148913095e-11
2.140226393e-11
2.13445879e-11
2.130664516e-11
2.127959851e-11
2.125544108e-11
2.123109179e-11
2.120655092e-11
2.368580541e-11
2.365084729e-11
2.34425567e-11
2.317599336e-11
2.293691224e-11
2.275227052e-11
2.261990745e-11
2.252879607e-11
2.246753327e-11
2.242691592e-11
2.2397821e-11
2.237173526e-11
2.234534428e-11
2.231864849e-11
2.424962646e-11
2.465809134e-11
2.476227482e-11
2.464191239e-11
2.445782653e-11
2.428907895e-11
2.415822513e-11
2.406433136e-11
2.399968123e-11
2.395620526e-11
2.392478942e-11
2.389643329e-11
2.386755834e-11
2.383816537e-11
2.454071093e-11
2.563497816e-11
2.627553994e-11
2.642706369e-11
2.635492221e-11
2.622511829e-11
2.61042686e-11
2.601030109e-11
2.59428356e-11
2.589637543e-11
2.586232386e-11
2.583125932e-11
2.579930375e-11
2.576645888e-11
2.447977871e-11
2.647418566e-11
2.791488447e-11
2.8509014e-11
2.863119543e-11
2.857453687e-11
2.847636727e-11
2.838631835e-11
2.831681878e-11
2.826711987e-11
2.822990539e-11
2.819542064e-11
2.815942847e-11
2.812193231e-11
2.407055222e-11
2.709298002e-11
2.959666208e-11
3.084603106e-11
3.127644294e-11
3.134296684e-11
3.12868334e-11
3.120717748e-11
3.113719244e-11
3.108413241e-11
3.104315192e-11
3.100434778e-11
3.096305502e-11
3.091927931e-11
2.337642586e-11
2.744084166e-11
3.121812154e-11
3.336190057e-11
3.4249908e-11
3.451140339e-11
3.452735769e-11
3.446938647e-11
3.440255116e-11
3.434689454e-11
3.430195145e-11
3.425813134e-11
3.421031691e-11
3.415851507e-11
2.248982292e-11
2.750771536e-11
3.267379412e-11
3.594670022e-11
3.747315241e-11
3.802742519e-11
3.816054804e-11
3.814334985e-11
3.80872552e-11
3.803180516e-11
3.798388634e-11
3.793521552e-11
3.788032798e-11
3.781922615e-11
2.150514047e-11
2.732241451e-11
3.38800691e-11
3.847222555e-11
4.083332311e-11
4.18030855e-11
4.211614348e-11
4.216924129e-11
4.213735895e-11
4.208824724e-11
4.204043959e-11
4.19887552e-11
4.192771498e-11
4.185730132e-11
2.050166082e-11
2.694037959e-11
3.479346404e-11
4.081636761e-11
4.419674156e-11
4.572048531e-11
4.629274429e-11
4.645708728e-11
4.647000371e-11
4.643768702e-11
4.639595445e-11
4.634549793e-11
4.62814666e-11
4.620379024e-11
1.953677712e-11
2.642725273e-11
3.541407935e-11
4.288646161e-11
4.742959475e-11
4.964500239e-11
5.056595629e-11
5.08921138e-11
5.09772788e-11
5.097673176e-11
5.095020216e-11
5.090797285e-11
5.084679917e-11
5.076650145e-11
1.864642288e-11
2.584508851e-11
3.57758112e-11
4.463238022e-11
5.041918841e-11
5.344354945e-11
5.480240461e-11
5.534575428e-11
5.553537396e-11
5.55851681e-11
5.558568609e-11
5.556118637e-11
5.551129078e-11
5.543562556e-11
1.784906536e-11
2.524433933e-11
3.593082525e-11
4.604623612e-11
5.308862825e-11
5.7002558e-11
5.887629828e-11
5.969019085e-11
6.001753798e-11
6.013784299e-11
6.01787566e-11
6.018306308e-11
6.015466028e-11
6.009287174e-11
1.715061741e-11
2.466127586e-11
3.593535655e-11
4.715225673e-11
5.540118408e-11
6.024043602e-11
6.268406859e-11
6.381293508e-11
6.43080846e-11
6.451811212e-11
6.461259603e-11
6.4656979e-11
6.466081582e-11
6.462300674e-11
1.654885853e-11
2.411894992e-11
3.584028532e-11
4.799316026e-11
5.735538371e-11
6.311180234e-11
6.615326809e-11
6.762755364e-11
6.831371518e-11
6.86292991e-11
6.878866568e-11
6.888312538e-11
6.892906652e-11
6.892485064e-11
1.603685527e-11
2.362979062e-11
3.568668488e-11
4.861808991e-11
5.897496056e-11
6.560429622e-11
6.924454458e-11
7.107853233e-11
7.196987929e-11
7.240182742e-11
7.263428146e-11
7.278640339e-11
7.288226079e-11
7.291958304e-11
1.56053617e-11
2.319853433e-11
3.550496392e-11
4.907436967e-11
6.029797787e-11
6.773090666e-11
7.194791812e-11
7.414035714e-11
7.524157479e-11
7.579504115e-11
7.610509796e-11
7.631944728e-11
7.647029344e-11
7.655467304e-11
1.524437985e-11
2.282481952e-11
3.531600275e-11
4.940312421e-11
6.136788748e-11
6.952104573e-11
7.427589978e-11
7.681261481e-11
7.811987339e-11
7.879466647e-11
7.918322107e-11
7.946130109e-11
7.966932517e-11
7.980361144e-11
1.494410126e-11
2.25052105e-11
3.513307362e-11
4.963776711e-11
6.222748428e-11
7.101261038e-11
7.625587795e-11
7.911330297e-11
8.061607619e-11
8.140759183e-11
8.187245094e-11
8.221308215e-11
8.247787825e-11
8.266243855e-11
1.475104278e-11
2.229516118e-11
3.500168113e-11
4.976698172e-11
6.276164519e-11
7.19701773e-11
7.755043847e-11
8.06340448e-11
8.227686258e-11
8.315293674e-11
8.367353151e-11
8.406019794e-11
8.436715681e-11
8.458946251e-11
1.463832953e-11
2.217144271e-11
3.492163955e-11
4.983705432e-11
6.306866355e-11
7.252841078e-11
7.831111785e-11
8.153187115e-11
8.326016284e-11
8.418808859e-11
8.474297697e-11
8.515805258e-11
8.549112133e-11
8.573690415e-11
1.452483377e-11
2.204577357e-11
3.483766181e-11
4.990208786e-11
6.33726806e-11
7.308938968e-11
7.908181222e-11
8.244599508e-11
8.426426977e-11
8.524703861e-11
8.583832115e-11
8.628363669e-11
8.664459746e-11
8.691555744e-11
1.441055676e-11
2.191814147e-11
3.474967578e-11
4.996188145e-11
6.367335256e-11
7.365276638e-11
7.986237487e-11
8.337654944e-11
8.528955615e-11
8.633033344e-11
8.696024625e-11
8.74377468e-11
8.782849814e-11
8.812645761e-11
1.42954999e-11
2.178853443e-11
3.46576093e-11
5.001623041e-11
6.397032043e-11
7.421816327e-11
8.06526265e-11
8.432364264e-11
8.633638399e-11
8.743852261e-11
8.810944131e-11
8.862119623e-11
8.904376003e-11
8.937067689e-11
1.41796647e-11
2.165694082e-11
3.45613902e-11
5.006492635e-11
6.426320975e-11
7.478517096e-11
8.145235158e-11
8.528735724e-11
8.740510627e-11
8.85721524e-11
8.928659605e-11
8.983482028e-11
9.029135292e-11
9.064931474e-11
1.406305279e-11
2.152334935e-11
3.446094637e-11
5.010775731e-11
6.455163034e-11
7.535334653e-11
8.226129541e-11
8.626774621e-11
8.849605833e-11
8.973176948e-11
9.049241115e-11
9.10794672e-11
9.157227014e-11
9.196350297e-11
1.394566593e-11
2.138774907e-11
3.435620581e-11
5.014450785e-11
6.483517614e-11
7.592221175e-11
8.307916049e-11
8.726482925e-11
8.960955686e-11
9.091791884e-11
9.17275944e-11
9.235599364e-11
9.288753014e-11
9.331441657e-11
1.382750603e-11
2.125012941e-11
3.424709672e-11
5.01749592e-11
6.511342497e-11
7.649125119e-11
8.390560261e-11
8.82785891e-11
9.074589671e-11
9.213113542e-11
9.299285947e-11
9.366527224e-11
9.423817685e-11
9.470326953e-11
1.370857509e-11
2.111048019e-11
3.413354751e-11
5.019888944e-11
6.538593846e-11
7.705991043e-11
8.474022669e-11
8.930896678e-11
9.190534771e-11
9.337194116e-11
9.428892345e-11
9.500819359e-11
9.562527907e-11
9.613131118e-11
1.358887528e-11
2.09687916e-11
3.401548692e-11
5.021607361e-11
6.565226193e-11
7.762759416e-11
8.558258231e-11
9.035585617e-11
9.308815112e-11
9.464084453e-11
9.561650293e-11
9.638566243e-11
9.704993054e-11
9.759982761e-11
1.346840888e-11
2.082505427e-11
3.389284405e-11
5.022628396e-11
6.591192442e-11
7.819366429e-11
8.64321589e-11
9.141909821e-11
9.429451476e-11
9.593833847e-11
9.697631082e-11
9.779859405e-11
9.851325067e-11
9.911014452e-11
1.33471783e-11
2.067925924e-11
3.376554846e-11
5.022929007e-11
6.616443865e-11
7.875743806e-11
8.728838064e-11
9.249847461e-11
9.552460705e-11
9.726489619e-11
9.836905415e-11
9.92479128e-11
1.000163849e-10
1.006636291e-10
1.32251861e-11
2.053139797e-11
3.363353019e-11
5.022485916e-11
6.640930117e-11
7.931818617e-11
8.815060089e-11
9.359370083e-11
9.677855046e-11
9.862096621e-11
9.979543215e-11
1.007345514e-10
1.015605045e-10
1.022616909e-10
1.310243497e-11
2.038146238e-11
3.349671991e-11
5.021275623e-11
6.664599251e-11
7.987513098e-11
8.901809633e-11
9.470441835e-11
9.80564147e-11
1.000069671e-10
1.012561334e-10
1.022594497e-10
1.031468061e-10
1.039057834e-10
1.297892772e-11
2.022944487e-11
3.335504893e-11
5.019274438e-11
6.687397743e-11
8.042744465e-11
8.989006061e-11
9.583018592e-11
9.935820898e-11
1.014232818e-10
1.027518317e-10
1.038235528e-10
1.047765118e-10
1.055974047e-10
1.285466733e-11
2.007533829e-11
3.32084493e-11
5.016458502e-11
6.709270524e-11
8.097424757e-11
9.076559761e-11
9.697046978e-11
1.006838734e-10
1.028702511e-10
1.04283182e-10
1.054278085e-10
1.064508687e-10
1.073381001e-10
1.272965689e-11
1.991913599e-11
3.305685388e-11
5.012803823e-11
6.730161028e-11
8.151460667e-11
9.164371439e-11
9.812463274e-11
1.020332687e-10
1.043481656e-10
1.058508142e-10
1.070731649e-10
1.081711498e-10
1.091294648e-10
1.260389964e-11
1.976083182e-11
3.290019642e-11
5.008286295e-11
6.750011235e-11
8.204753406e-11
9.252331355e-11
9.92919219e-11
1.034061647e-10
1.058572572e-10
1.07455328e-10
1.08760567e-10
1.099386549e-10
1.109731484e-10
1.247739897e-11
1.960042016e-11
3.273841167e-11
5.002881742e-11
6.768761745e-11
8.257198579e-11
9.340318535e-11
1.00471455e-10
1.048022269e-10
1.073976888e-10
1.090972863e-10
1.104909549e-10
1.117547117e-10
1.128708598e-10
1.23501584e-11
1.94378959e-11
3.257143541e-11
4.996565943e-11
6.786351843e-11
8.308686081e-11
9.42819994e-11
1.016622048e-10
1.062210009e-10
1.089695419e-10
1.107772078e-10
1.122652607e-10
1.136206777e-10
1.148243741e-10
1.22221816e-11
1.927325449e-11
3.239920458e-11
4.989314669e-11
6.802719592e-11
8.359100028e-11
9.515829599e-11
1.028629824e-10
1.076618945e-10
1.105728033e-10
1.124955583e-10
1.140844051e-10
1.155379417e-10
1.168355402e-10
1.209347238e-11
1.910649192e-11
3.222165731e-11
4.981103724e-11
6.817801929e-11
8.408318719e-11
9.603047721e-11
1.040724173e-10
1.09124157e-10
1.122073486e-10
1.142527398e-10
1.159492938e-10
1.17507927e-10
1.189062899e-10
1.196403468e-11
1.893760477e-11
3.203873308e-11
4.971908978e-11
6.831534778e-11
8.456214633e-11
9.689679786e-11
1.052889366e-10
1.106068544e-10
1.138729218e-10
1.160490768e-10
1.178608118e-10
1.195320946e-10
1.210386491e-10
1.183387262e-11
1.876659018e-11
3.185037274e-11
4.961706409e-11
6.843853176e-11
8.502654482e-11
9.775535629e-11
1.065107405e-10
1.121088405e-10
1.155691125e-10
1.178848e-10
1.198198169e-10
1.216119497e-10
1.232347533e-10
1.170299043e-11
1.859344592e-11
3.165651861e-11
4.950472147e-11
6.854691413e-11
8.547499308e-11
9.860408544e-11
1.077357756e-10
1.136287226e-10
1.172953261e-10
1.197600271e-10
1.218271323e-10
1.237490492e-10
1.254968672e-10
1.157139251e-11
1.841817032e-11
3.145711459e-11
4.938182511e-11
6.863983188e-11
8.590604652e-11
9.944074413e-11
1.089617056e-10
1.151648209e-10
1.190507486e-10
1.216747385e-10
1.238835357e-10
1.259450097e-10
1.278274121e-10
1.14390834e-11
1.824076238e-11
3.125210624e-11
4.924814057e-11
6.871661778e-11
8.631820779e-11
1.00262909e-10
1.101858782e-10
1.167151206e-10
1.208343029e-10
1.236287474e-10
1.259897471e-10
1.282015151e-10
1.302289988e-10
1.130606779e-11
1.80612217e-11
3.104144083e-11
4.910343621e-11
6.877660222e-11
8.670992993e-11
1.010679674e-10
1.114052892e-10
1.182772149e-10
1.226445929e-10
1.256216588e-10
1.281464121e-10
1.305203252e-10
1.327044692e-10
1.117235051e-11
1.787954855e-11
3.082506748e-11
4.894748368e-11
6.881911525e-11
8.707962033e-11
1.018531117e-10
1.126165438e-10
1.198482382e-10
1.244798356e-10
1.276528157e-10
1.303540775e-10
1.329032883e-10
1.352569446e-10
1.103793655e-11
1.769574384e-11
3.060293723e-11
4.878005833e-11
6.884348866e-11
8.742564567e-11
1.026153354e-10
1.138158147e-10
1.214247849e-10
1.263377738e-10
1.297212297e-10
1.326131557e-10
1.353523595e-10
1.37889887e-10
1.090283104e-11
1.750980916e-11
3.037500308e-11
4.860093971e-11
6.884905833e-11
8.774633789e-11
1.033514323e-10
1.149987985e-10
1.23002815e-10
1.282155678e-10
1.318254897e-10
1.349238701e-10
1.378696165e-10
1.40607184e-10
1.076703926e-11
1.732174678e-11
3.014122016e-11
4.840991204e-11
6.883516662e-11
8.80400013e-11
1.040579978e-10
1.161606709e-10
1.245775414e-10
1.301096555e-10
1.339636433e-10
1.372861795e-10
1.404572656e-10
1.434132644e-10
1.063056664e-11
1.713155965e-11
2.990154572e-11
4.820676469e-11
6.880116495e-11
8.830492091e-11
1.047314353e-10
1.172960433e-10
1.261432994e-10
1.320155748e-10
1.361330298e-10
1.396996777e-10
1.431176349e-10
1.46313238e-10
1.049341878e-11
1.693925146e-11
2.965593931e-11
4.799129262e-11
6.87464164e-11
8.853937208e-11
1.05367967e-10
1.183989229e-10
1.276933958e-10
1.339277377e-10
1.383300461e-10
1.421634428e-10
1.458531682e-10
1.493130633e-10
1.03556014e-11
1.674482656e-11
2.940436277e-11
4.776329691e-11
6.867029853e-11
8.87416314e-11
1.059636506e-10
1.19462679e-10
1.292199374e-10
1.358391494e-10
1.405498301e-10
1.44675788e-10
1.486664016e-10
1.524197835e-10
1.021712038e-11
1.654829007e-11
2.914678036e-11
4.752258512e-11
6.857220615e-11
8.890998891e-11
1.065144039e-10
1.204800216e-10
1.307136435e-10
1.377410488e-10
1.427858476e-10
1.472338827e-10
1.515598482e-10
1.556418514e-10
2.053407088e-11
2.051280511e-11
2.049142299e-11
2.04699248e-11
2.044831077e-11
2.04265812e-11
2.040473635e-11
2.03827765e-11
2.036070195e-11
2.0338513e-11
2.031620996e-11
2.029379313e-11
2.027126283e-11
2.02486194e-11
2.022586317e-11
2.020299449e-11
2.018001369e-11
2.015692114e-11
2.01337172e-11
2.011040225e-11
2.008697665e-11
2.00634408e-11
2.118294299e-11
2.116030148e-11
2.113750247e-11
2.111454627e-11
2.109143319e-11
2.106816355e-11
2.10447377e-11
2.102115601e-11
2.099741885e-11
2.097352661e-11
2.09494797e-11
2.092527855e-11
2.090092359e-11
2.087641529e-11
2.085175411e-11
2.082694054e-11
2.080197509e-11
2.077685826e-11
2.07515906e-11
2.072617265e-11
2.070060497e-11
2.067488814e-11
2.229287563e-11
2.226807893e-11
2.224303155e-11
2.221773398e-11
2.219218673e-11
2.216639035e-11
2.214034544e-11
2.211405265e-11
2.208751265e-11
2.206072615e-11
2.203369392e-11
2.200641674e-11
2.197889545e-11
2.195113092e-11
2.192312405e-11
2.189487581e-11
2.186638716e-11
2.183765914e-11
2.180869279e-11
2.177948922e-11
2.175004955e-11
2.172037494e-11
2.380961486e-11
2.378199742e-11
2.375395442e-11
2.372548687e-11
2.369659589e-11
2.366728269e-11
2.363754858e-11
2.360739498e-11
2.357682339e-11
2.35458354e-11
2.351443272e-11
2.348261714e-11
2.345039054e-11
2.341775489e-11
2.338471227e-11
2.335126482e-11
2.331741479e-11
2.328316452e-11
2.324851642e-11
2.321347299e-11
2.317803683e-11
2.314221061e-11
2.573426007e-11
2.570286321e-11
2.56707371e-11
2.563788404e-11
2.560430657e-11
2.557000746e-11
2.553498972e-11
2.549925659e-11
2.546281153e-11
2.542565823e-11
2.53878006e-11
2.534924278e-11
2.530998913e-11
2.52700442e-11
2.522941278e-11
2.518809986e-11
2.514611062e-11
2.510345047e-11
2.506012499e-11
2.501613997e-11
2.497150138e-11
2.492621538e-11
2.808470896e-11
2.80480227e-11
2.801010534e-11
2.79709618e-11
2.793059753e-11
2.788901852e-11
2.784623131e-11
2.780224297e-11
2.775706107e-11
2.771069373e-11
2.766314957e-11
2.761443772e-11
2.756456781e-11
2.751354995e-11
2.746139474e-11
2.740811323e-11
2.735371698e-11
2.729821794e-11
2.724162853e-11
2.718396161e-11
2.712523042e-11
2.706544864e-11
3.087513052e-11
3.083104561e-11
3.078493052e-11
3.073679472e-11
3.068664891e-11
3.063450502e-11
3.058037616e-11
3.052427665e-11
3.046622198e-11
3.040622883e-11
3.0344315e-11
3.028049943e-11
3.021480218e-11
3.01472444e-11
3.007784828e-11
3.000663707e-11
2.993363501e-11
2.985886733e-11
2.978236022e-11
2.970414076e-11
2.962423694e-11
2.954267757e-11
3.410527199e-11
3.405128941e-11
3.399404565e-11
3.393355705e-11
3.386984258e-11
3.380292387e-11
3.373282516e-11
3.365957326e-11
3.35831976e-11
3.350373011e-11
3.342120523e-11
3.333565986e-11
3.324713328e-11
3.315566714e-11
3.306130535e-11
3.296409405e-11
3.286408152e-11
3.276131809e-11
3.265585611e-11
3.254774982e-11
3.243705526e-11
3.232383023e-11
3.775497969e-11
3.768867973e-11
3.761728604e-11
3.754082323e-11
3.745932133e-11
3.737281589e-11
3.728134789e-11
3.718496376e-11
3.70837153e-11
3.697765961e-11
3.686685905e-11
3.675138105e-11
3.663129808e-11
3.650668748e-11
3.637763129e-11
3.624421614e-11
3.610653305e-11
3.596467728e-11
3.581874809e-11
3.566884861e-11
3.551508556e-11
3.535756908e-11
4.178113846e-11
4.170086359e-11
4.161286984e-11
4.151718778e-11
4.141385873e-11
4.130293483e-11
4.118447909e-11
4.105856533e-11
4.092527809e-11
4.07847125e-11
4.063697412e-11
4.04821787e-11
4.0320452e-11
4.015192947e-11
3.997675598e-11
3.979508545e-11
3.960708053e-11
3.941291217e-11
3.921275919e-11
3.900680787e-11
3.87952514e-11
3.857828945e-11
4.61165782e-11
4.602219326e-11
4.591648903e-11
4.579949164e-11
4.567124718e-11
4.553182198e-11
4.538130271e-11
4.521979632e-11
4.504742998e-11
4.486435082e-11
4.467072571e-11
4.446674092e-11
4.425260174e-11
4.402853194e-11
4.379477325e-11
4.355158469e-11
4.329924178e-11
4.303803576e-11
4.276827269e-11
4.249027243e-11
4.220436765e-11
4.191090274e-11
5.067146911e-11
5.056497325e-11
5.044245233e-11
5.030390394e-11
5.014936046e-11
4.99788896e-11
4.979259462e-11
4.959061448e-11
4.937312386e-11
4.914033307e-11
4.88924879e-11
4.862986913e-11
4.835279201e-11
4.806160545e-11
4.775669096e-11
4.743846143e-11
4.710735967e-11
4.676385686e-11
4.640845074e-11
4.604166368e-11
4.566404059e-11
4.527614677e-11
5.533850809e-11
5.522427672e-11
5.50881791e-11
5.493014192e-11
5.475014826e-11
5.454823836e-11
5.432451011e-11
5.40791201e-11
5.38122847e-11
5.352428056e-11
5.321544447e-11
5.288617297e-11
5.253692175e-11
5.216820441e-11
5.178059066e-11
5.137470408e-11
5.095121977e-11
5.051086155e-11
5.005439882e-11
4.958264287e-11
4.909644306e-11
4.859668275e-11
6.000146717e-11
5.988596133e-11
5.974171402e-11
5.956851922e-11
5.936625547e-11
5.91348866e-11
5.887446363e-11
5.858512892e-11
5.826711992e-11
5.792077012e-11
5.754650846e-11
5.71448592e-11
5.67164422e-11
5.626197153e-11
5.57822522e-11
5.527817647e-11
5.475072067e-11
5.420094137e-11
5.362996986e-11
5.303900543e-11
5.242930871e-11
5.180219508e-11
6.454623065e-11
6.443722107e-11
6.42917928e-11
6.410952935e-11
6.389013157e-11
6.363341938e-11
6.333933772e-11
6.300796695e-11
6.263952978e-11
6.223439098e-11
6.179305551e-11
6.131617092e-11
6.080453118e-11
6.025907533e-11
5.968088094e-11
5.907115863e-11
5.843124975e-11
5.776262238e-11
5.706686144e-11
5.63456562e-11
5.560079011e-11
5.483413223e-11
6.887152897e-11
6.877702747e-11
6.863795122e-11
6.84535884e-11
6.822337981e-11
6.794692525e-11
6.76239966e-11
6.725455505e-11
6.683875819e-11
6.637695656e-11
6.586969476e-11
6.531772228e-11
6.472200141e-11
6.408370303e-11
6.340419611e-11
6.268504274e-11
6.192799942e-11
6.113501265e-11
6.030820141e-11
5.944983615e-11
5.856232638e-11
5.764821198e-11
7.289733351e-11
7.282454566e-11
7.269890055e-11
7.251931299e-11
7.228488746e-11
7.199493313e-11
7.164898427e-11
7.124681939e-11
7.078846704e-11
7.027420367e-11
6.970456639e-11
6.908037637e-11
6.840274366e-11
6.767305411e-11
6.689296215e-11
6.606439516e-11
6.518955609e-11
6.427091229e-11
6.331116991e-11
6.231324871e-11
6.128026969e-11
6.021554418e-11
7.656912821e-11
7.652367325e-11
7.641727552e-11
7.62484208e-11
7.601581925e-11
7.571843186e-11
7.535549784e-11
7.492654707e-11
7.443141393e-11
7.387024979e-11
7.324354173e-11
7.255214137e-11
7.179726632e-11
7.098047999e-11
7.010369746e-11
6.916920637e-11
6.817966208e-11
6.713806072e-11
6.604771414e-11
6.491223298e-11
6.373551166e-11
6.252170323e-11
7.985809266e-11
7.984362304e-11
7.976058051e-11
7.960699127e-11
7.938113903e-11
7.908158854e-11
7.870723948e-11
7.825732722e-11
7.773144362e-11
7.712958183e-11
7.645214102e-11
7.569994374e-11
7.487425977e-11
7.397679378e-11
7.300969129e-11
7.197556897e-11
7.087750628e-11
6.971900811e-11
6.850398746e-11
6.723675976e-11
6.592201735e-11
6.456478209e-11
8.275803259e-11
8.277622932e-11
8.271885786e-11
8.25834619e-11
8.236790074e-11
8.207031567e-11
8.168923591e-11
8.122359687e-11
8.067272181e-11
8.00364047e-11
7.931491927e-11
7.850900868e-11
7.76199465e-11
7.664954761e-11
7.560014982e-11
7.447464182e-11
7.327647536e-11
7.200963354e-11
7.067861048e-11
6.928840375e-11
6.784448098e-11
6.635272185e-11
8.471636184e-11
8.475988746e-11
8.472299187e-11
8.460282157e-11
8.439692327e-11
8.410313005e-11
8.37196628e-11
8.324522881e-11
8.26789425e-11
8.202040617e-11
8.126977387e-11
8.042771864e-11
7.949548972e-11
7.847495039e-11
7.736855083e-11
7.617934832e-11
7.49110418e-11
7.35679526e-11
7.215499175e-11
7.067764348e-11
6.914193696e-11
6.755439251e-11
8.588338938e-11
8.594285766e-11
8.591897919e-11
8.580866547e-11
8.560924148e-11
8.531836571e-11
8.493407084e-11
8.445489538e-11
8.387982853e-11
8.320835577e-11
8.244053953e-11
8.157700998e-11
8.061900327e-11
7.95683942e-11
7.842768634e-11
7.720003961e-11
7.588930432e-11
7.450000283e-11
7.303729457e-11
7.150695784e-11
6.99153671e-11
6.826944397e-11
8.708316086e-11
8.715993513e-11
8.715030947e-11
8.705096638e-11
8.685898216e-11
8.657181156e-11
8.618730097e-11
8.570380016e-11
8.512014616e-11
8.44357084e-11
8.365045498e-11
8.276495254e-11
8.178040664e-11
8.069869659e-11
7.952237811e-11
7.825471623e-11
7.689971428e-11
7.546209394e-11
7.394726669e-11
7.236132453e-11
7.071101894e-11
6.900370272e-11
8.831681946e-11
8.841237024e-11
8.841833793e-11
8.833116312e-11
8.814767016e-11
8.7865078e-11
8.748102593e-11
8.699367014e-11
8.640168168e-11
8.570430035e-11
8.490138634e-11
8.399342131e-11
8.298156368e-11
8.186769672e-11
8.065443133e-11
7.934512968e-11
7.794393594e-11
7.645577248e-11
7.488632239e-11
7.324201653e-11
7.15300024e-11
6.975808128e-11
8.958555736e-11
8.970145544e-11
8.972446713e-11
8.965076224e-11
8.947690025e-11
8.919984341e-11
8.881700232e-11
8.832633412e-11
8.7726332e-11
8.701607844e-11
8.619530192e-11
8.526438969e-11
8.422444978e-11
8.307736092e-11
8.182577446e-11
8.04731374e-11
7.902373357e-11
7.748269639e-11
7.585599486e-11
7.415041107e-11
7.237350306e-11
7.053354677e-11
9.089060355e-11
9.102853701e-11
9.107015902e-11
9.101133583e-11
9.084833969e-11
9.057786771e-11
9.019708655e-11
8.970373174e-11
8.909609511e-11
8.837308058e-11
8.753427128e-11
8.657995206e-11
8.551116885e-11
8.432977718e-11
8.30384519e-11
8.164071847e-11
8.014100363e-11
7.854465705e-11
7.685793763e-11
7.508798691e-11
7.324279425e-11
7.133114669e-11
9.223323221e-11
9.239502043e-11
9.245693581e-11
9.241452035e-11
9.226373954e-11
9.200100931e-11
9.162323164e-11
9.112789289e-11
9.051306174e-11
8.977745029e-11
8.892048498e-11
8.794233215e-11
8.68439544e-11
8.562716351e-11
8.429464511e-11
8.284999875e-11
8.129779193e-11
7.964358708e-11
7.789393256e-11
7.605634084e-11
7.413925994e-11
7.21520276e-11
9.361476394e-11
9.380236294e-11
9.388638479e-11
9.386202979e-11
9.372493706e-11
9.347121535e-11
9.309747781e-11
9.260093946e-11
9.197942957e-11
9.123145468e-11
9.035626654e-11
8.935388943e-11
8.822517909e-11
8.697188535e-11
8.55966926e-11
8.410326515e-11
8.249630155e-11
8.078156868e-11
7.896590449e-11
7.705720706e-11
7.506441167e-11
7.299744454e-11
9.503656637e-11
9.525207726e-11
9.53601625e-11
9.535565707e-11
9.523385058e-11
9.499051684e-11
9.462195852e-11
9.412510187e-11
9.349752029e-11
9.27374948e-11
9.18440779e-11
9.081712612e-11
8.965736622e-11
8.836646826e-11
8.694709913e-11
8.540297128e-11
8.37388992e-11
8.196084473e-11
8.007593648e-11
7.80924721e-11
7.601989963e-11
7.386876894e-11
9.650005627e-11
9.674573682e-11
9.687999507e-11
9.689727131e-11
9.679248064e-11
9.656103758e-11
9.619891516e-11
9.570273296e-11
9.506978709e-11
9.429810773e-11
9.338652142e-11
9.233469237e-11
9.114319682e-11
8.981360395e-11
8.834854022e-11
8.675174332e-11
8.502812544e-11
8.318383307e-11
8.122628491e-11
7.916418804e-11
7.700752421e-11
7.476750073e-11
9.800670143e-11
9.828497755e-11
9.844767889e-11
9.848882071e-11
9.84029185e-11
9.81850061e-11
9.78307065e-11
9.733631112e-11
9.669881308e-11
9.591596491e-11
9.498634149e-11
9.39093911e-11
9.26855156e-11
9.131615648e-11
8.980387045e-11
8.815239255e-11
8.636671141e-11
8.445314514e-11
8.241939754e-11
8.027458931e-11
7.802925256e-11
7.569528575e-11
9.955802224e-11
9.987149941e-11
1.000650846e-10
1.001323396e-10
1.000673546e-10
9.986476141e-11
9.951980926e-11
9.902843718e-11
9.838730877e-11
9.759387352e-11
9.664643019e-11
9.554418622e-11
9.428734054e-11
9.287717414e-11
9.131613903e-11
8.960793498e-11
8.77576013e-11
8.57716092e-11
8.365793629e-11
8.142611506e-11
7.908724101e-11
7.665393752e-11
1.011555936e-10
1.015070693e-10
1.017341624e-10
1.018299545e-10
1.017880823e-10
1.016027528e-10
1.012688156e-10
1.007818333e-10
1.001381152e-10
9.933478412e-11
9.836983789e-11
9.724221456e-11
9.595187626e-11
9.44999052e-11
9.288860865e-11
9.112161317e-11
8.920397597e-11
8.714229498e-11
8.494480275e-11
8.262143566e-11
8.018386195e-11
7.764546255e-11
1.028010473e-10
1.031935247e-10
1.034569462e-10
1.035838864e-10
1.035674981e-10
1.034015393e-10
1.030804347e-10
1.025993481e-10
1.019542129e-10
1.011418018e-10
1.001597847e-10
9.900679739e-11
9.76825263e-11
9.618781201e-11
9.452477198e-11
9.269691467e-11
9.070927333e-11
8.856853631e-11
8.628316354e-11
8.386348056e-11
8.132173284e-11
7.867208868e-11
1.044960753e-10
1.049327774e-10
1.052355575e-10
1.053964538e-10
1.054081044e-10
1.052637936e-10
1.049574991e-10
1.044839659e-10
1.038387316e-10
1.03018195e-10
1.020196678e-10
1.008414472e-10
9.948290085e-11
9.794458064e-11
9.622836327e-11
9.433758587e-11
9.227720491e-11
9.00539514e-11
8.767647477e-11
8.515546661e-11
8.250374713e-11
7.973629644e-11
1.062424325e-10
1.067268169e-10
1.070722087e-10
1.072700763e-10
1.073125144e-10
1.071923091e-10
1.069029729e-10
1.064388141e-10
1.05794956e-10
1.049673986e-10
1.039530635e-10
1.027498702e-10
1.013568212e-10
9.977412808e-11
9.800336856e-11
9.604764543e-11
9.391177332e-11
9.160246497e-11
8.912850917e-11
8.650092948e-11
8.373310863e-11
8.084085505e-11
1.080419411e-10
1.085777156e-10
1.089692087e-10
1.092072815e-10
1.092834594e-10
1.091900072e-10
1.089199577e-10
1.084671668e-10
1.078263262e-10
1.06993013e-10
1.059637263e-10
1.047359677e-10
1.033083251e-10
1.016806119e-10
9.985403989e-11
9.783140328e-11
9.561729626e-11
9.321833761e-11
9.064339043e-11
8.790376221e-11
8.501337317e-11
8.198886546e-11
1.098964952e-10
1.104876349e-10
1.109289702e-10
1.112107123e-10
1.11323796e-10
1.112599432e-10
1.110116958e-10
1.105724447e-10
1.099364359e-10
1.090988021e-10
1.080555894e-10
1.068038405e-10
1.053416752e-10
1.036684437e-10
1.017849144e-10
9.969348565e-11
9.739843782e-11
9.490620323e-11
9.222563627e-11
8.936826282e-11
8.63484992e-11
8.318381262e-11
1.118080668e-10
1.124588335e-10
1.129540177e-10
1.132831364e-10
1.134365131e-10
1.1340531e-10
1.131815706e-10
1.127582139e-10
1.121290307e-10
1.112886931e-10
1.102327664e-10
1.08957793e-10
1.074613675e-10
1.057423026e-10
1.038008334e-10
1.016388611e-10
9.926024176e-11
9.667110961e-11
9.388020592e-11
9.089918773e-11
8.774290594e-11
8.442962622e-11
1.137787132e-10
1.14493677e-10
1.150469973e-10
1.15427454e-10
1.156247377e-10
1.156294418e-10
1.154331079e-10
1.150281851e-10
1.14408007e-10
1.135667752e-10
1.124995515e-10
1.112023358e-10
1.096721359e-10
1.079071431e-10
1.059069565e-10
1.036728614e-10
1.012081608e-10
9.851855638e-11
9.561254687e-11
9.250180705e-11
8.920153577e-11
8.573074832e-11
1.15810586e-10
1.165946493e-10
1.172106881e-10
1.176467075e-10
1.178917421e-10
1.179358173e-10
1.177699771e-10
1.173862133e-10
1.167774107e-10
1.159372988e-10
1.148604178e-10
1.135421838e-10
1.119789519e-10
1.101681989e-10
1.081087704e-10
1.058011987e-10
1.032480823e-10
1.004545307e-10
9.742864118e-11
9.418196148e-11
9.07299214e-11
8.709220904e-11
1.179059427e-10
1.18764365e-10
1.194480156e-10
1.199440932e-10
1.202409538e-10
1.203280658e-10
1.201959941e-10
1.198362978e-10
1.192414349e-10
1.184046702e-10
1.173200119e-10
1.159822513e-10
1.143870223e-10
1.125309848e-10
1.104120983e-10
1.080299835e-10
1.053863572e-10
1.024855474e-10
9.933505725e-11
9.594612662e-11
9.233426261e-11
8.851971466e-11
1.200671611e-10
1.21005586e-10
1.217620702e-10
1.22322976e-10
1.226759673e-10
1.228099758e-10
1.227151244e-10
1.223825805e-10
1.218044135e-10
1.209734434e-10
1.198831435e-10
1.185276435e-10
1.169017845e-10
1.150012985e-10
1.128231101e-10
1.103657461e-10
1.076298343e-10
1.046186966e-10
1.013390115e-10
9.78014886e-11
9.40215162e-11
9.001975161e-11
1.222967592e-10
1.233212423e-10
1.24156129e-10
1.247869102e-10
1.252005596e-10
1.253855041e-10
1.253314854e-10
1.250293408e-10
1.244708093e-10
1.236483028e-10
1.225547673e-10
1.211836396e-10
1.19528894e-10
1.17585216e-10
1.15348329e-10
1.128154566e-10
1.099858949e-10
1.068616952e-10
1.034484363e-10
9.97560288e-11
9.579949741e-11
9.15997046e-11
1.24597419e-10
1.2571446e-10
1.26633684e-10
1.273396649e-10
1.278187077e-10
1.280587854e-10
1.280493447e-10
1.277809844e-10
1.272451946e-10
1.264340381e-10
1.253399546e-10
1.23955665e-10
1.222742024e-10
1.202890776e-10
1.179946283e-10
1.153865361e-10
1.124624823e-10
1.092229356e-10
1.056720493e-10
1.018186127e-10
9.767698837e-11
9.326798554e-11
1.269720166e-10
1.281885982e-10
1.291984751e-10
1.299852539e-10
1.305346089e-10
1.308341407e-10
1.308731177e-10
1.306420294e-10
1.301322282e-10
1.293355147e-10
1.282438612e-10
1.268492608e-10
1.251437305e-10
1.231194693e-10
1.207692247e-10
1.180868647e-10
1.150681283e-10
1.11711534e-10
1.08019424e-10
1.039990836e-10
9.966385442e-11
9.503417364e-11
1.294236576e-10
1.307472936e-10
1.318545318e-10
1.327279699e-10
1.333527044e-10
1.337160872e-10
1.338073649e-10
1.336170912e-10
1.331366314e-10
1.323576429e-10
1.312716939e-10
1.298700501e-10
1.281436399e-10
1.260832032e-10
1.236796708e-10
1.20924791e-10
1.178119821e-10
1.143373824e-10
1.105010673e-10