/*--------------------------------*- C++ -*----------------------------------*\
| =========                 |                                                 |
| \\      /  F ield         | OpenFOAM: The Open Source CFD Toolbox           |
|  \\    /   O peration     | Version:  2406                                  |
|   \\  /    A nd           | Website:  www.openfoam.com                      |
|    \\/     M anipulation  |                                                 |
\*---------------------------------------------------------------------------*/
FoamFile
{
    version     2.0;
    format      ascii;
    arch        "LSB;label=32;scalar=64";
    class       volScalarField;
    location    "2e-07";
    object      e;
}
// * * * * * * * * * * * * * * * * * * * * * * * * * * * * * * * * * * * * * //

dimensions      [0 -3 0 0 0 0 0];

internalField   nonuniform List<scalar> 
5880
(
7.24028e-05
0.000214701
0.000343838
0.000445185
0.000507705
0.000526745
0.00050487
0.000450647
0.000376133
0.000294034
0.00021529
0.000147504
9.44118e-05
5.6328e-05
3.12405e-05
1.6055e-05
7.61806e-06
3.32516e-06
1.33058e-06
4.86814e-07
1.62581e-07
4.95389e-08
1.37821e-08
3.50715e-09
8.18388e-10
1.75662e-10
3.47972e-11
6.38348e-12
1.08791e-12
1.73243e-13
2.66952e-14
4.20106e-15
6.92459e-16
1.1971e-16
2.1717e-17
4.13559e-18
8.26785e-19
1.73529e-19
3.82315e-20
8.8405e-21
2.14493e-21
5.45839e-22
1.45623e-22
4.07098e-23
1.19181e-23
3.65135e-24
1.16996e-24
3.91751e-25
1.36956e-25
4.99461e-26
1.89838e-26
7.51327e-27
3.0932e-27
1.32319e-27
5.8749e-28
2.70449e-28
1.28957e-28
6.35142e-29
3.27212e-29
1.56375e-29
0.00342
0.010124
0.0161547
0.0208034
0.0235615
0.0242484
0.023034
0.0203625
0.0168215
0.0130067
0.00941277
0.0063687
0.00402168
0.00236483
0.00129137
0.000652843
0.000304498
0.000130574
5.13128e-05
1.84324e-05
6.04275e-06
1.807e-06
4.93219e-07
1.23087e-07
2.81522e-08
5.919e-09
1.14769e-09
2.05932e-10
3.43039e-11
5.33553e-12
8.02772e-13
1.23417e-13
1.98908e-14
3.36543e-15
5.98131e-16
1.11702e-16
2.19216e-17
4.52096e-18
9.79626e-19
2.22988e-19
5.3303e-20
1.33746e-20
3.52092e-21
9.71949e-22
2.81168e-22
8.51734e-23
2.70009e-23
8.94996e-24
3.0991e-24
1.12e-24
4.22065e-25
1.65693e-25
6.76946e-26
2.87488e-26
1.26771e-26
5.79814e-27
2.74778e-27
1.34559e-27
6.89256e-28
3.27871e-28
0.1036
0.306126
0.48665
0.623263
0.701081
0.715925
0.674389
0.590953
0.483762
0.370542
0.265536
0.177823
0.111081
0.064578
0.0348469
0.0174014
0.00801562
0.00339472
0.00131789
0.000467862
0.000151658
4.48632e-05
1.21184e-05
2.99363e-06
6.77826e-07
1.4107e-07
2.70695e-08
4.80489e-09
7.91398e-10
1.21636e-10
1.80764e-11
2.74481e-12
4.37014e-13
7.30624e-14
1.28351e-14
2.37014e-15
4.60122e-16
9.39074e-17
2.01458e-17
4.54204e-18
1.07585e-18
2.67607e-19
6.98664e-20
1.91351e-20
5.49414e-21
1.65253e-21
5.20353e-22
1.71385e-22
5.89885e-23
2.11971e-23
7.94513e-24
3.10329e-24
1.26182e-24
5.33467e-25
2.34243e-25
1.06711e-25
5.03815e-26
2.45864e-26
1.25492e-26
5.95601e-27
2.25394
6.64695
10.5238
13.3995
14.9653
15.1612
14.1624
12.3039
9.98432
7.57973
5.3824
3.57067
2.20882
1.27118
0.678837
0.335425
0.152892
0.0640936
0.0246423
0.00866999
0.00278749
0.000818527
0.000219634
5.39284e-05
1.21416e-05
2.51314e-06
4.79605e-07
8.46494e-08
1.38587e-08
2.11622e-09
3.12289e-10
4.70743e-11
7.43946e-12
1.23446e-12
2.1524e-13
3.94513e-14
7.60279e-15
1.54056e-15
3.28185e-16
7.349e-17
1.72929e-17
4.27416e-18
1.10908e-18
3.01974e-19
8.62164e-20
2.57927e-20
8.07997e-21
2.64821e-21
9.07231e-22
3.24563e-22
1.21142e-22
4.71282e-23
1.90904e-23
8.04218e-24
3.51939e-24
1.59819e-24
7.5229e-25
3.661e-25
1.86328e-25
8.82696e-26
37.5931
110.617
174.348
220.585
244.5
245.662
227.522
195.963
157.648
118.642
83.5078
54.9021
33.6502
19.1834
10.1461
4.96526
2.24194
0.931398
0.355119
0.12401
0.039611
0.0115672
0.00308947
0.000755663
0.000169577
3.49983e-05
6.66069e-06
1.1723e-06
1.91345e-07
2.91169e-08
4.27972e-09
6.42318e-10
1.0104e-10
1.66843e-11
2.8944e-12
5.27788e-13
1.01185e-13
2.03969e-14
4.32282e-15
9.63096e-16
2.25498e-16
5.5464e-17
1.4324e-17
3.88218e-18
1.10349e-18
3.28711e-19
1.02551e-19
3.34784e-20
1.14258e-20
4.07285e-21
1.51494e-21
5.87435e-22
2.37214e-22
9.96355e-23
4.348e-23
1.96924e-23
9.24621e-24
4.48913e-24
2.27928e-24
1.07804e-24
500.421
1468.75
2303.28
2893.88
3181.61
3169.07
2909.24
2483.77
1980.78
1477.8
1031.14
671.96
408.173
230.58
120.839
58.5988
26.2257
10.8048
4.08841
1.41822
0.450469
0.130951
0.0348523
0.00850211
0.00190421
0.000392418
7.45902e-05
1.31122e-05
2.13725e-06
3.24662e-07
4.76144e-08
7.12725e-09
1.11778e-09
1.8396e-10
3.17991e-11
5.77668e-12
1.10316e-12
2.21494e-13
4.67542e-14
1.03747e-14
2.41945e-15
5.92753e-16
1.52491e-16
4.11728e-17
1.166e-17
3.46091e-18
1.07599e-18
3.50093e-19
1.19099e-19
4.23232e-20
1.56961e-20
6.06913e-21
2.4442e-21
1.02399e-21
4.4577e-22
2.01425e-22
9.43674e-23
4.57223e-23
2.3166e-23
1.09409e-23
5463.7
15988.9
24930.4
31082.3
33873.5
33431.2
30409.7
25729.2
20338
15041.3
10403.8
6720.53
4046.25
2265.4
1176.65
565.587
250.986
102.586
38.5401
13.2864
4.19859
1.21563
0.32258
0.0785318
0.0175658
0.00361712
0.000687209
0.000120757
1.9673e-05
2.98603e-06
4.37369e-07
6.53559e-08
1.02283e-08
1.67917e-09
2.89459e-10
5.24267e-11
9.98031e-12
1.9973e-12
4.20192e-13
9.29246e-14
2.15969e-14
5.27321e-15
1.35203e-15
3.63846e-16
1.02707e-16
3.0389e-17
9.4189e-18
3.05548e-18
1.03646e-18
3.67298e-19
1.35854e-19
5.23959e-20
2.10497e-20
8.79808e-21
3.82151e-21
1.72313e-21
8.05655e-22
3.89613e-22
1.97024e-22
9.29204e-23
49908.8
145547
225457
278688
300830
294022
264900
222055
173946
127506
87418.6
55973.3
33402.5
18536
9542.98
4547.59
2001.39
811.74
302.852
103.784
32.6358
9.41322
2.49102
0.605325
0.135251
0.0278359
0.00528737
0.000929013
0.000151325
2.29586e-05
3.35989e-06
5.01414e-07
7.83387e-08
1.28343e-08
2.20718e-09
3.98726e-10
7.56936e-11
1.51041e-11
3.16804e-12
6.98461e-13
1.6183e-13
3.93908e-14
1.00686e-14
2.70131e-15
7.60242e-16
2.24281e-16
6.93155e-17
2.24233e-17
7.58577e-18
2.6812e-18
9.89215e-19
3.80596e-19
1.52547e-19
6.36183e-20
2.75745e-20
1.24082e-20
5.79033e-21
2.79511e-21
1.41087e-21
6.64457e-22
387268
1.1247e+06
1.72904e+06
2.11685e+06
2.26146e+06
2.18752e+06
1.95124e+06
1.62004e+06
1.25734e+06
913326
620584
393817
232924
128112
65379.2
30889.9
13483.9
5427.49
2011.16
685.143
214.404
61.6064
16.2575
3.94318
0.880034
0.181008
0.0343727
0.00603859
0.000983426
0.000149141
2.18085e-05
3.25059e-06
5.0704e-07
8.2906e-08
1.42258e-08
2.56353e-09
4.85366e-10
9.65815e-11
2.01995e-11
4.44031e-12
1.02574e-12
2.4893e-13
6.34391e-14
1.69701e-14
4.76211e-15
1.40088e-15
4.31747e-16
1.3929e-16
4.69976e-17
1.65691e-17
6.09803e-18
2.34063e-18
9.36018e-19
3.89505e-19
1.68473e-19
7.56598e-20
3.52395e-20
1.69802e-20
8.55553e-21
4.02341e-21
2.58396e+06
7.46662e+06
1.13779e+07
1.37808e+07
1.45572e+07
1.39272e+07
1.22938e+07
1.01063e+07
7.76928e+06
5.59138e+06
3.76454e+06
2.3673e+06
1.38754e+06
756359
382608
179235
77604.5
31002
11409.8
3864.07
1203.24
344.379
90.6093
21.9303
4.88744
1.00436
0.190616
0.0334733
0.00544891
0.000825822
0.000120637
1.79562e-05
2.79602e-06
4.56235e-07
7.81034e-08
1.40389e-08
2.65092e-09
5.26018e-10
1.09696e-10
2.40426e-11
5.53746e-12
1.33984e-12
3.40442e-13
9.08009e-14
2.54066e-14
7.45264e-15
2.29049e-15
7.36952e-16
2.47999e-16
8.72091e-17
3.2017e-17
1.226e-17
4.89156e-18
2.03106e-18
8.76647e-19
3.92903e-19
1.82647e-19
8.78489e-20
4.41824e-20
2.0746e-20
1.49775e+07
4.30102e+07
6.48679e+07
7.76242e+07
8.09995e+07
7.65958e+07
6.68799e+07
5.44189e+07
4.14263e+07
2.95305e+07
1.96963e+07
1.22713e+07
7.12669e+06
3.84975e+06
1.93024e+06
896521
385031
152658
55801.2
18784.8
5819.81
1658.8
435.026
105.031
23.3653
4.79522
0.90917
0.159519
0.0259449
0.00392815
0.000573064
8.51539e-05
1.32332e-05
2.15439e-06
3.67889e-07
6.59498e-08
1.2418e-08
2.45688e-09
5.10824e-10
1.11621e-10
2.563e-11
6.18253e-12
1.56617e-12
4.1647e-13
1.16187e-13
3.39832e-14
1.04149e-14
3.34169e-15
1.12154e-15
3.93367e-16
1.44055e-16
5.50284e-17
2.19045e-17
9.07476e-18
3.90847e-18
1.74814e-18
8.11054e-19
3.89373e-19
1.95468e-19
9.16349e-20
7.60914e+07
2.16801e+08
3.23042e+08
3.81368e+08
3.92708e+08
3.66809e+08
3.16667e+08
2.5495e+08
1.9213e+08
1.35621e+08
8.95895e+07
5.5288e+07
3.18094e+07
1.70258e+07
8.4606e+06
3.89599e+06
1.65965e+06
653063
237079
79325.4
24447.7
6937.72
1812.96
436.469
96.8792
19.8468
3.75734
0.658362
0.106936
0.0161669
0.00235445
0.000349143
5.41327e-05
8.79047e-06
1.49698e-06
2.67582e-07
5.02333e-08
9.90806e-09
2.05362e-09
4.47326e-10
1.0239e-10
2.46214e-11
6.21774e-12
1.64833e-12
4.58466e-13
1.33699e-13
4.08569e-14
1.30725e-14
4.37541e-15
1.53057e-15
5.59079e-16
2.1304e-16
8.46011e-17
3.49694e-17
1.50282e-17
6.70761e-18
3.10578e-18
1.48819e-18
7.45677e-19
3.48981e-19
3.4158e+08
9.63528e+08
1.41537e+09
1.6458e+09
1.67066e+09
1.54036e+09
1.31423e+09
1.04659e+09
7.80551e+08
5.45444e+08
3.56761e+08
2.1803e+08
1.24247e+08
6.58842e+07
3.24453e+07
1.4812e+07
6.25851e+06
2.44409e+06
881155
293015
89819.9
25371.5
6604.39
1584.89
350.846
71.713
13.5497
2.36985
0.384236
0.0579796
0.00842581
0.00124648
0.000192754
3.12129e-05
5.29966e-06
9.44392e-07
1.76731e-07
3.47466e-08
7.17849e-09
1.55857e-09
3.55591e-10
8.52327e-11
2.14558e-11
5.67018e-12
1.57227e-12
4.57134e-13
1.39286e-13
4.44385e-14
1.48326e-14
5.17475e-15
1.88531e-15
7.16615e-16
2.83894e-16
1.17075e-16
5.02018e-17
2.23591e-17
1.03317e-17
4.94107e-18
2.47107e-18
1.15444e-18
1.36521e+09
3.8013e+09
5.49096e+09
6.27815e+09
6.276e+09
5.70847e+09
4.81146e+09
3.78878e+09
2.7956e+09
1.93336e+09
1.25175e+09
7.57388e+08
4.2741e+08
2.24504e+08
1.09555e+08
4.95824e+07
2.07796e+07
8.05367e+06
2.88353e+06
952931
290507
81668
21171.4
5062.75
1117.35
227.784
42.9358
7.4927
1.21216
0.182496
0.0264558
0.00390328
0.000601872
9.71679e-05
1.64465e-05
2.92133e-06
5.44901e-07
1.06778e-07
2.19868e-08
4.75791e-09
1.08197e-09
2.58498e-10
6.48642e-11
1.70879e-11
4.72366e-12
1.36926e-12
4.15981e-13
1.32338e-13
4.40495e-14
1.53266e-14
5.56945e-15
2.11168e-15
8.34546e-16
3.4336e-16
1.46906e-16
6.52902e-17
3.01076e-17
1.43708e-17
7.17322e-18
3.34513e-18
4.89368e+09
1.33966e+10
1.89741e+10
2.12935e+10
2.09418e+10
1.87809e+10
1.56326e+10
1.21684e+10
8.88046e+09
6.07625e+09
3.89314e+09
2.33161e+09
1.30274e+09
6.77737e+08
3.27704e+08
1.47028e+08
6.11193e+07
2.35109e+07
8.36017e+06
2.74575e+06
832454
232887
60117
14322.7
3150.74
640.446
120.399
20.9579
3.38218
0.507924
0.0734353
0.0108036
0.00166089
0.000267302
4.50984e-05
7.9845e-06
1.4844e-06
2.89919e-07
5.95004e-08
1.28335e-08
2.9089e-09
6.92751e-10
1.73281e-10
4.55079e-11
1.25417e-11
3.62473e-12
1.09801e-12
3.48337e-13
1.1563e-13
4.01261e-14
1.4544e-14
5.50084e-15
2.1688e-15
8.90276e-16
3.80066e-16
1.68559e-16
7.75711e-17
3.69542e-17
1.84111e-17
8.56999e-18
1.58477e+10
4.24276e+10
5.87283e+10
6.45755e+10
6.2427e+10
5.51759e+10
4.53405e+10
3.48781e+10
2.51683e+10
1.7033e+10
1.07969e+10
6.39898e+09
3.53927e+09
1.82348e+09
8.73617e+08
3.88581e+08
1.60238e+08
6.11847e+07
2.16105e+07
7.05465e+06
2.12726e+06
592272
152242
36135.7
7922.84
1605.64
301.012
52.2593
8.41186
1.25998
0.181669
0.0266495
0.00408465
0.000655347
0.000110219
1.94516e-05
3.60465e-06
7.01764e-07
1.43563e-07
3.08667e-08
6.97444e-09
1.65582e-09
4.12918e-10
1.0812e-10
2.97102e-11
8.56222e-12
2.58649e-12
8.18328e-13
2.70929e-13
9.37793e-14
3.39072e-14
1.27938e-14
5.03259e-15
2.06126e-15
8.78092e-16
3.88633e-16
1.78497e-16
8.48745e-17
4.22078e-17
1.96109e-17
4.6692e+10
1.21415e+11
1.63671e+11
1.76036e+11
1.67161e+11
1.4556e+11
1.18059e+11
8.97265e+10
6.40033e+10
4.28309e+10
2.68533e+10
1.57465e+10
8.62054e+09
4.39831e+09
2.08795e+09
9.20811e+08
3.76738e+08
1.42824e+08
5.01195e+07
1.62665e+07
4.87968e+06
1.35239e+06
346221
81883.4
17895.5
3616.14
676.094
117.076
18.7977
2.80851
0.403876
0.0590816
0.00902968
0.00144448
0.000242215
4.26178e-05
7.87384e-06
1.52829e-06
3.11713e-07
6.68207e-08
1.50541e-08
3.5637e-09
8.86168e-10
2.31389e-10
6.34097e-11
1.82253e-11
5.49116e-12
1.73291e-12
5.72306e-13
1.97621e-13
7.12862e-14
2.68368e-14
1.05335e-14
4.30522e-15
1.83027e-15
8.08465e-16
3.70621e-16
1.75908e-16
8.73239e-17
4.04999e-17
1.26033e+11
3.15608e+11
4.12816e+11
4.33678e+11
4.04307e+11
3.46784e+11
2.77563e+11
2.08373e+11
1.4689e+11
9.7175e+10
6.02471e+10
3.49485e+10
1.89366e+10
9.56823e+09
4.50129e+09
1.96868e+09
7.9939e+08
3.00996e+08
1.04984e+08
3.38894e+07
1.01179e+07
2.7924e+06
712240
167899
36587.2
7373.57
1375.21
237.581
38.0586
5.67315
0.813866
0.118757
0.0181029
0.00288822
0.000482996
8.47517e-05
1.56155e-05
3.02266e-06
6.14838e-07
1.31446e-07
2.95349e-08
6.97332e-09
1.72954e-09
4.50455e-10
1.23134e-10
3.53048e-11
1.06116e-11
3.34099e-12
1.10087e-12
3.7929e-13
1.36521e-13
5.12873e-14
2.00891e-14
8.1945e-15
3.47702e-15
1.53301e-15
7.01508e-16
3.32382e-16
1.64722e-16
7.62621e-17
3.13739e+11
7.48953e+11
9.47165e+11
9.70797e+11
8.88331e+11
7.50469e+11
5.92693e+11
4.39422e+11
3.06056e+11
2.00111e+11
1.22665e+11
7.03863e+10
3.77482e+10
1.88917e+10
8.80978e+09
3.82256e+09
1.54118e+09
5.76665e+08
2.00027e+08
6.42598e+07
1.91052e+07
5.25364e+06
1.33578e+06
314019
68260.1
13726.1
2554.7
440.478
70.4244
10.4772
1.49997
0.218398
0.033217
0.00528734
0.000882127
0.000154421
2.83843e-05
5.48121e-06
1.11228e-06
2.37233e-07
5.31795e-08
1.25268e-08
3.0998e-09
8.0551e-10
2.19699e-10
6.28531e-11
1.88511e-11
5.92252e-12
1.94743e-12
6.69596e-13
2.40533e-13
9.0186e-14
3.52585e-14
1.43556e-14
6.08028e-15
2.67609e-15
1.2225e-15
5.78284e-16
2.86126e-16
1.32242e-16
7.24484e+11
1.63003e+12
1.98673e+12
1.98535e+12
1.78317e+12
1.48382e+12
1.15622e+12
8.46418e+11
5.82341e+11
3.76252e+11
2.28012e+11
1.29423e+11
6.87119e+10
3.40714e+10
1.57568e+10
6.7866e+09
2.71864e+09
1.0116e+09
3.49227e+08
1.11739e+08
3.31077e+07
9.0778e+06
2.30242e+06
540107
117187
23525.1
4371.69
752.633
120.154
17.8485
2.55115
0.370802
0.0562936
0.0089436
0.00148923
0.000260183
4.77295e-05
9.19842e-06
1.86285e-06
3.96521e-07
8.87082e-08
2.08541e-08
5.15018e-09
1.33568e-09
3.63586e-10
1.03815e-10
3.10768e-11
9.74498e-12
3.19831e-12
1.09766e-12
3.93585e-13
1.47307e-13
5.7489e-14
2.33664e-14
9.88008e-15
4.34131e-15
1.98002e-15
9.35143e-16
4.61985e-16
2.13159e-16
1.55929e+12
3.26765e+12
3.82867e+12
3.72968e+12
3.28888e+12
2.69606e+12
2.07263e+12
1.49791e+12
1.01783e+12
6.49767e+11
3.8929e+11
2.18625e+11
1.14944e+11
5.65016e+10
2.5931e+10
1.10956e+10
4.42019e+09
1.63716e+09
5.63047e+08
1.79598e+08
5.30816e+07
1.45251e+07
3.67798e+06
861614
186728
37446.3
6951.99
1195.73
190.708
28.3
4.04038
0.586503
0.0889176
0.0141061
0.00234531
0.000409109
7.49299e-05
1.44171e-05
2.91497e-06
6.19446e-07
1.38349e-07
3.24697e-08
8.00529e-09
2.07263e-09
5.63239e-10
1.60551e-10
4.79789e-11
1.50197e-11
4.92119e-12
1.68612e-12
6.03582e-13
2.25529e-13
8.78725e-14
3.56581e-14
1.50533e-14
6.60404e-15
3.00737e-15
1.4182e-15
6.99585e-16
3.22243e-16
3.1387e+12
6.05763e+12
6.81238e+12
6.47164e+12
5.60554e+12
4.52758e+12
3.43372e+12
2.4495e+12
1.64362e+12
1.03673e+12
6.14192e+11
3.41413e+11
1.77873e+11
8.67468e+10
3.95473e+10
1.68292e+10
6.67475e+09
2.46367e+09
8.45059e+08
2.69021e+08
7.93966e+07
2.17034e+07
5.49154e+06
1.28577e+06
278534
55837.3
10362.7
1781.7
284.04
42.1276
6.0105
0.871765
0.132041
0.0209258
0.00347533
0.000605527
0.000110771
2.12869e-05
4.29845e-06
9.12249e-07
2.03473e-07
4.76886e-08
1.17411e-08
3.03557e-09
8.23735e-10
2.34463e-10
6.99634e-11
2.18693e-11
7.15466e-12
2.44765e-12
8.74853e-13
3.26392e-13
1.26977e-13
5.1448e-14
2.16863e-14
9.49962e-15
4.31949e-15
2.03395e-15
1.00187e-15
4.60697e-16
5.92159e+12
1.04249e+13
1.12478e+13
1.04294e+13
8.87871e+12
7.06701e+12
5.28687e+12
3.72214e+12
2.46623e+12
1.53731e+12
9.00975e+11
4.9608e+11
2.56357e+11
1.24183e+11
5.63099e+10
2.38633e+10
9.43576e+09
3.47537e+09
1.19044e+09
3.78675e+08
1.1172e+08
3.05381e+07
7.72822e+06
1.80995e+06
392207
78648.1
14599.6
2510.54
400.252
59.3588
8.46691
1.22754
0.185829
0.0294312
0.00488439
0.000850367
0.00015543
2.98422e-05
6.02034e-06
1.27642e-06
2.84407e-07
6.6586e-08
1.63755e-08
4.22888e-09
1.14618e-09
3.25841e-10
9.71076e-11
3.03146e-11
9.90438e-12
3.38374e-12
1.20776e-12
4.4996e-13
1.748e-13
7.0723e-14
2.97679e-14
1.30209e-14
5.91201e-15
2.77981e-15
1.36729e-15
6.27647e-16
1.04831e+13
1.67186e+13
1.73209e+13
1.56961e+13
1.31411e+13
1.03084e+13
7.60597e+12
5.28427e+12
3.45781e+12
2.13101e+12
1.23654e+12
6.75156e+11
3.46542e+11
1.66995e+11
7.54351e+10
3.1886e+10
1.25885e+10
4.63327e+09
1.58695e+09
5.05003e+08
1.49098e+08
4.07919e+07
1.03334e+07
2.42252e+06
525452
105458
19591.2
3370.92
537.673
79.7637
11.379
1.64965
0.249682
0.0395324
0.00655828
0.00114127
0.000208492
4.00068e-05
8.06584e-06
1.70893e-06
3.80495e-07
8.90117e-08
2.18722e-08
5.64327e-09
1.52808e-09
4.3397e-10
1.29195e-10
4.02869e-11
1.31473e-11
4.48627e-12
1.5993e-12
5.95069e-13
2.30869e-13
9.32827e-14
3.92098e-14
1.71271e-14
7.7655e-15
3.64615e-15
1.79089e-15
8.20662e-16
1.74207e+13
2.50809e+13
2.5002e+13
2.21757e+13
1.82679e+13
1.41219e+13
1.0275e+13
7.04472e+12
4.55454e+12
2.77768e+12
1.59791e+12
8.6658e+11
4.42586e+11
2.12557e+11
9.58223e+10
4.0467e+10
1.59761e+10
5.88399e+09
2.01766e+09
6.43015e+08
1.9016e+08
5.21167e+07
1.3225e+07
3.10547e+06
674602
135575
25215.6
4342.95
693.274
102.912
14.6876
2.12983
0.322394
0.0510444
0.00846723
0.00147321
0.000269068
5.16151e-05
1.04025e-05
2.2031e-06
4.90292e-07
1.14637e-07
2.81523e-08
7.2589e-09
1.96416e-09
5.57384e-10
1.65798e-10
5.1654e-11
1.68407e-11
5.74072e-12
2.04429e-12
7.59786e-13
2.94427e-13
1.18818e-13
4.98803e-14
2.17598e-14
9.85288e-15
4.61998e-15
2.26612e-15
1.03661e-15
2.71721e+13
3.53286e+13
3.39901e+13
2.95512e+13
2.39591e+13
1.82485e+13
1.30915e+13
8.86103e+12
5.66577e+12
3.42473e+12
1.95699e+12
1.05641e+12
5.38004e+11
2.5803e+11
1.163e+11
4.91507e+10
1.94317e+10
7.17031e+09
2.46422e+09
7.87212e+08
2.33376e+08
6.41152e+07
1.63071e+07
3.83739e+06
835211
168140
31319
5401.01
863.09
128.23
18.3132
2.65683
0.402299
0.0637097
0.0105696
0.00183912
0.000335901
6.44329e-05
1.29845e-05
2.74953e-06
6.11776e-07
1.43004e-07
3.51077e-08
9.04888e-09
2.44742e-09
6.94169e-10
2.06366e-10
6.42514e-11
2.09328e-11
7.13003e-12
2.53687e-12
9.41992e-13
3.64677e-13
1.47015e-13
6.16498e-14
2.68633e-14
1.21493e-14
5.68971e-15
2.78733e-15
1.27288e-15
3.97772e+13
4.69086e+13
4.37193e+13
3.7302e+13
2.9762e+13
2.2327e+13
1.57962e+13
1.05659e+13
6.69388e+12
4.01981e+12
2.28757e+12
1.23223e+12
6.27184e+11
3.00984e+11
1.35863e+11
5.75418e+10
2.28086e+10
8.44091e+09
2.90981e+09
9.32458e+08
2.77283e+08
7.64009e+07
1.94851e+07
4.5967e+06
1.00272e+06
202263
37739.9
6517.85
1042.86
155.099
22.1687
3.21822
0.487549
0.0772409
0.0128186
0.00223104
0.000407572
7.81948e-05
1.57601e-05
3.33761e-06
7.42671e-07
1.73605e-07
4.26188e-08
1.0984e-08
2.97037e-09
8.42324e-10
2.50343e-10
7.79172e-11
2.53747e-11
8.63887e-12
3.07202e-12
1.13999e-12
4.4102e-13
1.77656e-13
7.44365e-14
3.24058e-14
1.46418e-14
6.85002e-15
3.35222e-15
1.52851e-15
5.46474e+13
5.89403e+13
5.34149e+13
4.47485e+13
3.51155e+13
2.5943e+13
1.81198e+13
1.20045e+13
7.55801e+12
4.5235e+12
2.5712e+12
1.38555e+12
7.06276e+11
3.39714e+11
1.53784e+11
6.53444e+10
2.5993e+10
9.65481e+09
3.34064e+09
1.07443e+09
3.20622e+08
8.86338e+07
2.26737e+07
5.36367e+06
1.17291e+06
237101
44323
7667.01
1228.39
182.898
26.1665
3.80139
0.576252
0.0913417
0.0151657
0.00264066
0.000482593
9.26226e-05
1.86747e-05
3.95619e-06
8.80598e-07
2.05908e-07
5.05625e-08
1.30343e-08
3.52553e-09
9.99903e-10
2.97204e-10
9.25061e-11
3.0125e-11
1.02552e-11
3.64619e-12
1.35274e-12
5.23167e-13
2.10666e-13
8.82274e-14
3.83892e-14
1.73348e-14
8.10445e-15
3.96325e-15
1.80494e-15
7.04708e+13
7.03406e+13
6.21688e+13
5.11083e+13
3.94173e+13
2.87056e+13
1.98493e+13
1.30765e+13
8.21524e+12
4.91778e+12
2.79981e+12
1.51249e+12
7.73343e+11
3.73277e+11
1.69626e+11
7.23701e+10
2.8909e+10
1.07835e+10
3.74674e+09
1.20989e+09
3.62416e+08
1.00541e+08
2.58028e+07
6.12162e+06
1.34211e+06
271916
50930.4
8824.6
1415.85
211.06
30.2252
4.39455
0.666624
0.10573
0.0175645
0.00305996
0.000559515
0.000107443
2.16745e-05
4.59422e-06
1.02319e-06
2.39385e-07
5.88166e-08
1.51707e-08
4.10563e-09
1.16505e-09
3.46466e-10
1.07889e-10
3.51496e-11
1.19702e-11
4.25733e-12
1.57989e-12
6.11134e-13
2.4612e-13
1.03081e-13
4.48516e-14
2.02511e-14
9.46623e-15
4.62817e-15
2.10636e-15
8.54443e+13
7.99366e+13
6.89614e+13
5.55351e+13
4.21226e+13
3.03575e+13
2.09008e+13
1.3768e+13
8.66848e+12
5.20536e+12
2.97399e+12
1.61267e+12
8.27909e+11
4.0134e+11
1.83206e+11
7.85281e+10
3.15159e+10
1.18101e+10
4.12176e+09
1.33663e+09
4.01967e+08
1.1192e+08
2.88184e+07
6.85735e+06
1.50736e+06
306096
57445.6
9970.24
1601.94
239.088
34.2731
4.98719
0.75706
0.12015
0.0199721
0.00348148
0.00063698
0.000122397
2.47077e-05
5.24092e-06
1.1681e-06
2.73509e-07
6.72574e-08
1.73629e-08
4.70315e-09
1.33583e-09
3.97619e-10
1.23933e-10
4.04133e-11
1.3775e-11
4.90347e-12
1.82118e-12
7.05028e-13
2.84143e-13
1.19088e-13
5.18487e-14
2.34235e-14
1.09546e-14
5.35818e-15
2.43897e-15
9.18143e+13
8.64893e+13
7.25591e+13
5.72322e+13
4.29765e+13
3.09411e+13
2.13833e+13
1.4159e+13
8.95921e+12
5.40447e+12
3.10133e+12
1.68933e+12
8.71402e+11
4.24536e+11
1.94789e+11
8.3924e+10
3.38527e+10
1.27482e+10
4.47001e+09
1.45595e+09
4.3964e+08
1.22868e+08
3.17442e+07
7.57636e+06
1.66985e+06
339878
63913.3
11111.7
1787.91
267.165
38.3362
5.58303
0.84811
0.134687
0.0224021
0.00390747
0.000715375
0.000137554
2.7788e-05
5.89907e-06
1.31595e-06
3.0842e-07
7.59197e-08
1.96206e-08
5.32083e-09
1.5131e-09
4.50951e-10
1.40738e-10
4.5954e-11
1.56846e-11
5.59077e-12
2.07925e-12
8.06011e-13
3.25271e-13
1.36501e-13
5.9505e-14
2.69152e-14
1.26023e-14
6.17105e-15
2.81233e-15
9.13201e+13
8.48821e+13
7.03432e+13
5.56802e+13
4.22921e+13
3.08207e+13
2.15033e+13
1.43341e+13
9.11658e+12
5.52534e+12
3.18635e+12
1.74487e+12
9.05108e+11
4.43498e+11
2.04663e+11
8.86776e+10
3.59663e+10
1.36151e+10
4.79758e+09
1.56985e+09
4.7605e+08
1.33559e+08
3.46271e+07
8.29013e+06
1.83217e+06
373808
70438.1
12267.4
1976.78
295.751
42.4812
6.19181
0.941248
0.149571
0.0248923
0.00434435
0.000795837
0.000153124
3.09553e-05
6.57658e-06
1.46835e-06
3.44467e-07
8.48815e-08
2.19615e-08
5.96292e-09
1.6979e-09
5.06723e-10
1.58372e-10
5.17892e-11
1.77035e-11
6.32039e-12
2.35438e-12
9.14145e-13
3.6951e-13
1.55319e-13
6.7818e-14
3.07244e-14
1.44086e-14
7.06639e-15
3.2261e-15
8.92241e+13
8.23508e+13
6.84877e+13
5.46884e+13
4.18396e+13
3.06182e+13
2.1418e+13
1.43183e+13
9.14324e+12
5.57037e+12
3.23156e+12
1.78087e+12
9.29732e+11
4.58463e+11
2.12883e+11
9.27937e+10
3.78526e+10
1.44076e+10
5.10293e+09
1.67774e+09
5.11e+08
1.43936e+08
3.74511e+07
8.99478e+06
1.99348e+06
407708
76987.1
13431.9
2167.67
324.717
46.6895
6.81083
1.03607
0.164737
0.0274313
0.00479
0.000877948
0.00016902
3.41901e-05
7.26889e-06
1.62418e-06
3.81354e-07
9.40613e-08
2.43624e-08
6.62243e-09
1.88804e-09
5.64223e-10
1.76593e-10
5.7834e-11
1.98007e-11
7.08052e-12
2.64192e-12
1.02753e-12
4.16059e-13
1.7519e-13
7.66283e-14
3.47766e-14
1.63373e-14
8.02613e-15
3.6717e-15
8.77751e+13
8.03924e+13
6.64803e+13
5.29648e+13
4.05201e+13
2.97256e+13
2.08957e+13
1.4062e+13
9.04639e+12
5.55277e+12
3.24475e+12
1.80059e+12
9.46345e+11
4.69708e+11
2.19495e+11
9.62662e+10
3.95018e+10
1.51198e+10
5.3834e+09
1.77859e+09
5.44136e+08
1.5389e+08
4.01863e+07
9.68276e+06
2.15202e+06
441214
83490.2
14592.6
2358.56
353.757
50.9174
7.43373
1.13159
0.18003
0.0299931
0.00523986
0.000960858
0.000185073
3.74575e-05
7.96824e-06
1.78163e-06
4.18635e-07
1.03343e-07
2.67913e-08
7.29018e-09
2.08075e-09
6.22573e-10
1.95111e-10
6.39878e-11
2.19397e-11
7.85751e-12
2.93652e-12
1.14399e-12
4.63999e-13
1.95713e-13
8.57541e-14
3.89867e-14
1.83474e-14
9.02951e-15
4.13934e-15
8.65907e+13
7.86514e+13
6.44907e+13
5.12003e+13
3.91927e+13
2.88487e+13
2.03776e+13
1.37873e+13
8.91899e+12
5.50576e+12
3.23632e+12
1.80701e+12
9.55782e+11
4.77466e+11
2.24558e+11
9.91066e+10
4.0913e+10
1.57494e+10
5.6375e+09
1.87171e+09
5.75194e+08
1.63333e+08
4.28071e+07
1.03473e+07
2.3062e+06
473983
89879.9
15737.6
2547.45
382.57
55.1209
8.05406
1.22684
0.195293
0.0325516
0.00568933
0.00104372
0.000201119
4.07233e-05
8.66727e-06
1.939e-06
4.55896e-07
1.12621e-07
2.92196e-08
7.95799e-09
2.27358e-09
6.80999e-10
2.1367e-10
7.01621e-11
2.40888e-11
8.63935e-12
3.23348e-12
1.26162e-12
5.12518e-13
2.1653e-13
9.50333e-14
4.32783e-14
2.04017e-14
1.00577e-14
4.62013e-15
8.56586e+13
7.7204e+13
6.27257e+13
4.95414e+13
3.78537e+13
2.78817e+13
1.97431e+13
1.34095e+13
8.71755e+12
5.41262e+12
3.20187e+12
1.79977e+12
9.58444e+11
4.82041e+11
2.28212e+11
1.01362e+11
4.20978e+10
1.62981e+10
5.86486e+09
1.95671e+09
6.0399e+08
1.72198e+08
4.52919e+07
1.09826e+07
2.45459e+06
505696
96092.6
16855.1
2732.41
410.856
59.2565
8.66537
1.32083
0.210368
0.0350806
0.00613383
0.00112568
0.000216993
4.39543e-05
9.35876e-06
2.09464e-06
4.92743e-07
1.21794e-07
3.16204e-08
8.61822e-09
2.46425e-09
7.38787e-10
2.32035e-10
7.6276e-11
2.62188e-11
9.41506e-12
3.52848e-12
1.37864e-12
5.60869e-13
2.37313e-13
1.04315e-13
4.758e-14
2.24653e-14
1.10929e-14
5.10561e-15
8.48708e+13
7.5964e+13
6.11588e+13
4.80111e+13
3.65715e+13
2.69249e+13
1.90977e+13
1.30143e+13
8.49888e+12
5.30503e+12
3.15664e+12
1.78532e+12
9.56791e+11
4.84286e+11
2.30724e+11
1.03108e+11
4.30756e+10
1.67695e+10
6.06583e+09
2.03343e+09
6.30402e+08
1.80432e+08
4.76234e+07
1.15836e+07
2.59591e+06
536067
102069
17934.3
2911.58
438.329
63.2816
9.26137
1.41258
0.225101
0.037554
0.0065688
0.00120592
0.000232535
4.71176e-05
1.00357e-05
2.24698e-06
5.28796e-07
1.30766e-07
3.39681e-08
9.26372e-09
2.65064e-09
7.95279e-10
2.49991e-10
8.22556e-11
2.8303e-11
1.01747e-11
3.81762e-12
1.49345e-12
6.08369e-13
2.57759e-13
1.13461e-13
5.18263e-14
2.45062e-14
1.21188e-14
5.58794e-15
8.41949e+13
7.4898e+13
5.97887e+13
4.66414e+13
3.53938e+13
2.60209e+13
1.84682e+13
1.26143e+13
8.26729e+12
5.1841e+12
3.101e+12
1.76399e+12
9.51093e+11
4.84378e+11
2.32187e+11
1.04384e+11
4.38596e+10
1.71673e+10
6.24108e+09
2.10188e+09
6.54369e+08
1.88001e+08
4.97885e+07
1.21463e+07
2.7291e+06
564845
107758
18965.3
3083.27
464.721
67.1563
9.83606
1.50118
0.239342
0.0399467
0.00698984
0.00128362
0.000247589
5.01817e-05
1.06913e-05
2.39449e-06
5.63697e-07
1.39449e-07
3.62389e-08
9.88785e-09
2.8308e-09
8.49869e-10
2.6734e-10
8.80333e-11
3.03172e-11
1.0909e-11
4.09729e-12
1.60459e-12
6.5439e-13
2.77591e-13
1.22344e-13
5.59561e-14
2.64943e-14
1.31198e-14
6.05965e-15
8.36312e+13
7.39957e+13
5.86095e+13
4.54406e+13
3.43391e+13
2.51924e+13
1.78767e+13
1.22283e+13
8.03707e+12
5.05948e+12
3.04075e+12
1.73885e+12
9.42821e+11
4.82949e+11
2.32847e+11
1.05276e+11
4.44764e+10
1.74988e+10
6.39219e+09
2.1623e+09
6.75885e+08
1.94884e+08
5.17772e+07
1.26673e+07
2.8532e+06
591799
113109
19938.4
3245.81
489.768
70.8408
10.3834
1.58567
0.252939
0.0422332
0.00739247
0.00135795
0.000261995
5.31142e-05
1.13188e-05
2.53563e-06
5.9708e-07
1.47751e-07
3.84092e-08
1.04841e-08
3.00282e-09
9.0197e-10
2.83893e-10
9.35443e-11
3.22383e-11
1.16094e-11
4.36411e-12
1.71067e-12
6.98343e-13
2.96546e-13
1.30842e-13
5.99121e-14
2.84011e-14
1.40813e-14
6.51368e-15
8.31522e+13
7.3225e+13
5.75947e+13
4.43949e+13
3.34069e+13
2.44472e+13
1.73343e+13
1.18666e+13
7.81614e+12
4.93642e+12
2.979e+12
1.71161e+12
9.32825e+11
4.80392e+11
2.32869e+11
1.05848e+11
4.49479e+10
1.77704e+10
6.52091e+09
2.21504e+09
6.94994e+08
2.01075e+08
5.35837e+07
1.31441e+07
2.96751e+06
616750
118082
20846
3397.8
513.243
74.3007
10.8983
1.66525
0.265757
0.0443907
0.00777263
0.00142818
0.000275609
5.58861e-05
1.19118e-05
2.66902e-06
6.28623e-07
1.55592e-07
4.0458e-08
1.10466e-08
3.16503e-09
9.51072e-10
2.99484e-10
9.8733e-11
3.40464e-11
1.22685e-11
4.61518e-12
1.8105e-12
7.39721e-13
3.14401e-13
1.38853e-13
6.36443e-14
3.02021e-14
1.49906e-14
6.94381e-15
8.27451e+13
7.25675e+13
5.67255e+13
4.34925e+13
3.25937e+13
2.37885e+13
1.68475e+13
1.15365e+13
7.6105e+12
4.81928e+12
2.91856e+12
1.68389e+12
9.21958e+11
4.77111e+11
2.32427e+11
1.06167e+11
4.52981e+10
1.79898e+10
6.62921e+09
2.26055e+09
7.11768e+08
2.06578e+08
5.52045e+07
1.35751e+07
3.07142e+06
639538
122642
21680.6
3537.95
534.935
77.5035
11.3755
1.73911
0.277667
0.0463971
0.00812643
0.00149357
0.000288292
5.8469e-05
1.24645e-05
2.79333e-06
6.5801e-07
1.62894e-07
4.23653e-08
1.157e-08
3.31585e-09
9.96695e-10
3.13961e-10
1.03548e-10
3.57233e-11
1.28795e-11
4.84787e-12
1.90302e-12
7.78067e-13
3.30952e-13
1.46282e-13
6.71075e-14
3.18746e-14
1.58358e-14
7.34428e-15
8.24003e+13
7.20091e+13
5.5986e+13
4.27211e+13
3.18931e+13
2.32153e+13
1.64188e+13
1.12417e+13
7.42398e+12
4.71109e+12
2.86149e+12
1.65694e+12
9.10906e+11
4.73448e+11
2.31676e+11
1.06296e+11
4.55493e+10
1.8164e+10
6.71915e+09
2.29933e+09
7.26302e+08
2.11403e+08
5.66385e+07
1.39591e+07
3.1645e+06
660040
126759
22436.3
3665.14
554.659
80.4205
11.8108
1.80654
0.288553
0.0482324
0.00845029
0.00155346
0.000299913
6.08365e-05
1.29713e-05
2.90729e-06
6.8495e-07
1.69587e-07
4.41125e-08
1.20491e-08
3.45385e-09
1.03841e-09
3.27188e-10
1.07944e-10
3.72532e-11
1.34366e-11
5.05992e-12
1.98729e-12
8.1299e-13
3.46024e-13
1.53049e-13
7.02631e-14
3.33994e-14
1.6607e-14
7.71018e-15
8.21106e+13
7.15391e+13
5.53631e+13
4.20692e+13
3.1298e+13
2.27247e+13
1.60484e+13
1.09841e+13
7.25892e+12
4.61393e+12
2.80934e+12
1.63175e+12
9.00233e+11
4.69689e+11
2.30746e+11
1.06289e+11
4.57222e+10
1.83e+10
6.79277e+09
2.33188e+09
7.38702e+08
2.15567e+08
5.78863e+07
1.42954e+07
3.24642e+06
678155
130408
23107.9
3778.41
572.256
83.0265
12.2001
1.86693
0.298309
0.0498785
0.00874099
0.00160725
0.000310356
6.29648e-05
1.34269e-05
3.00978e-06
7.09177e-07
1.75605e-07
4.56829e-08
1.24796e-08
3.57775e-09
1.07584e-09
3.39046e-10
1.11881e-10
3.86224e-11
1.39348e-11
5.2494e-12
2.06254e-12
8.44163e-13
3.59474e-13
1.59086e-13
7.30792e-14
3.47606e-14
1.72958e-14
8.03736e-15
8.18704e+13
7.1149e+13
5.48463e+13
4.15276e+13
3.08016e+13
2.23131e+13
1.57354e+13
1.07645e+13
7.11676e+12
4.52925e+12
2.76325e+12
1.6091e+12
8.90392e+11
4.66076e+11
2.29753e+11
1.06195e+11
4.58353e+10
1.84042e+10
6.85194e+09
2.3587e+09
7.49075e+08
2.19087e+08
5.8949e+07
1.45834e+07
3.3169e+06
693797
133567
23690.8
3876.89
587.58
85.2988
12.54
1.91968
0.306839
0.0513189
0.00899551
0.00165438
0.00031951
6.48313e-05
1.38266e-05
3.09972e-06
7.30436e-07