/*--------------------------------*- C++ -*----------------------------------*\
| =========                 |                                                 |
| \\      /  F ield         | OpenFOAM: The Open Source CFD Toolbox           |
|  \\    /   O peration     | Version:  2406                                  |
|   \\  /    A nd           | Website:  www.openfoam.com                      |
|    \\/     M anipulation  |                                                 |
\*---------------------------------------------------------------------------*/
FoamFile
{
    version     2.0;
    format      ascii;
    arch        "LSB;label=32;scalar=64";
    class       volVectorField;
    location    "2e-07";
    object      E;
}
// * * * * * * * * * * * * * * * * * * * * * * * * * * * * * * * * * * * * * //

dimensions      [1 1 -3 0 0 -1 0];

internalField   nonuniform List<vector> 
5880
(
(1430.28 -7151.45 -0)
(4371.44 -7146.66 -0)
(7477.07 -7136.27 -0)
(10753.6 -7119.35 -0)
(14207.1 -7094.92 -0)
(17842.8 -7061.88 -0)
(21665.2 -7019.05 -0)
(25678 -6965.18 -0)
(29883.3 -6898.96 -0)
(34281.5 -6819.03 -0)
(38871.3 -6724.02 -0)
(43649 -6612.58 -0)
(48607.9 -6483.43 -0)
(53738.7 -6335.42 -0)
(59028.3 -6167.61 -0)
(64460.2 -5979.31 -0)
(70013.9 -5770.16 -0)
(75664.7 -5540.25 -0)
(81384.1 -5290.13 -0)
(87139.5 -5020.91 -0)
(92894.7 -4734.32 -0)
(98611.1 -4432.64 -0)
(104248 -4118.77 -0)
(109761 -3796.14 -0)
(115110 -3468.58 -0)
(120253 -3140.25 -0)
(125152 -2815.41 -0)
(129771 -2498.3 -0)
(134081 -2192.95 -0)
(138059 -1902.95 -0)
(141601 -1638.89 -0)
(144576 -1412.76 -0)
(147008 -1224.08 -0)
(149006 -1066.11 -0)
(150656 -933.259 -0)
(152025 -820.987 -0)
(153167 -725.581 -0)
(154124 -644.046 -0)
(154928 -573.951 -0)
(155608 -513.335 -0)
(156183 -460.603 -0)
(156673 -414.456 -0)
(157089 -373.838 -0)
(157445 -337.883 -0)
(157750 -305.881 -0)
(158011 -277.245 -0)
(158234 -251.494 -0)
(158426 -228.225 -0)
(158591 -207.101 -0)
(158732 -187.842 -0)
(158853 -170.214 -0)
(158957 -154.019 -0)
(159046 -139.092 -0)
(159121 -125.288 -0)
(159185 -112.488 -0)
(159240 -100.591 -0)
(159286 -89.5098 -0)
(159324 -79.1687 -0)
(159356 -69.504 -0)
(159377 -60.4617 -0)
(1452.93 -21175.5 -0)
(4440.61 -21161.1 -0)
(7595.2 -21129.8 -0)
(10923.1 -21078.9 -0)
(14430.1 -21005.3 -0)
(18121.4 -20905.9 -0)
(22001.3 -20777.1 -0)
(26073.1 -20615.1 -0)
(30338.2 -20415.9 -0)
(34796.8 -20175.7 -0)
(39446.7 -19890.3 -0)
(44283.3 -19555.7 -0)
(49299.3 -19168.1 -0)
(54484.1 -18724.3 -0)
(59823.6 -18221.6 -0)
(65300.1 -17657.9 -0)
(70891.7 -17032.5 -0)
(76572.8 -16345.7 -0)
(82313.6 -15599.4 -0)
(88080.7 -14797.2 -0)
(93837.3 -13944.3 -0)
(99544.3 -13047.7 -0)
(105161 -12116.2 -0)
(110644 -11160 -0)
(115953 -10190.6 -0)
(121047 -9220.23 -0)
(125890 -8261.44 -0)
(130448 -7326.7 -0)
(134694 -6427.69 -0)
(138606 -5574.84 -0)
(142084 -4799.12 -0)
(145002 -4135.38 -0)
(147384 -3581.99 -0)
(149339 -3118.93 -0)
(150953 -2729.73 -0)
(152291 -2400.94 -0)
(153407 -2121.66 -0)
(154341 -1883.05 -0)
(155126 -1677.97 -0)
(155789 -1500.66 -0)
(156351 -1346.45 -0)
(156828 -1211.51 -0)
(157234 -1092.75 -0)
(157581 -987.635 -0)
(157878 -894.079 -0)
(158132 -810.362 -0)
(158350 -735.08 -0)
(158537 -667.055 -0)
(158698 -605.303 -0)
(158835 -549.006 -0)
(158953 -497.481 -0)
(159054 -450.155 -0)
(159140 -406.54 -0)
(159214 -366.217 -0)
(159276 -328.829 -0)
(159329 -294.081 -0)
(159374 -261.709 -0)
(159411 -231.488 -0)
(159442 -203.224 -0)
(159462 -176.752 -0)
(1496.01 -34742.4 -0)
(4572.16 -34718 -0)
(7819.83 -34665.1 -0)
(11245.2 -34578.9 -0)
(14854 -34454.4 -0)
(18651 -34286.2 -0)
(22639.8 -34068.3 -0)
(26823.1 -33794.5 -0)
(31201.6 -33458.2 -0)
(35774 -33052.7 -0)
(40537.1 -32571.3 -0)
(45484.5 -32007.6 -0)
(50607.2 -31355.6 -0)
(55892.6 -30610 -0)
(61324.4 -29766.6 -0)
(66882.6 -28822.7 -0)
(72543.2 -27777.4 -0)
(78278.3 -26631.9 -0)
(84056.2 -25390 -0)
(89841.8 -24058.2 -0)
(95597.4 -22645.9 -0)
(101283 -21165 -0)
(106858 -19630.4 -0)
(112281 -18059.5 -0)
(117512 -16471 -0)
(122514 -14885.1 -0)
(127251 -13322.1 -0)
(131695 -11801.9 -0)
(135820 -10343.2 -0)
(139609 -8962.23 -0)
(142969 -7708.62 -0)
(145780 -6637.78 -0)
(148071 -5746.2 -0)
(149948 -5000.98 -0)
(151495 -4375.22 -0)
(152776 -3847.01 -0)
(153843 -3398.61 -0)
(154736 -3015.74 -0)
(155486 -2686.83 -0)
(156119 -2402.58 -0)
(156655 -2155.44 -0)
(157110 -1939.26 -0)
(157498 -1749.05 -0)
(157828 -1580.73 -0)
(158111 -1430.95 -0)
(158353 -1296.94 -0)
(158561 -1176.45 -0)
(158739 -1067.59 -0)
(158891 -968.775 -0)
(159022 -878.693 -0)
(159134 -796.249 -0)
(159230 -720.523 -0)
(159312 -650.734 -0)
(159382 -586.206 -0)
(159442 -526.368 -0)
(159492 -470.746 -0)
(159534 -418.912 -0)
(159569 -370.507 -0)
(159599 -325.214 -0)
(159618 -282.768 -0)
(1558.57 -48034.6 -0)
(4763.21 -47999.3 -0)
(8145.99 -47922.8 -0)
(11712.9 -47798.3 -0)
(15469.3 -47618.5 -0)
(19419.2 -47375.7 -0)
(23565.6 -47061.3 -0)
(27909.8 -46666.5 -0)
(32451.3 -46182.1 -0)
(37187.2 -45598.7 -0)
(42111.9 -44907 -0)
(47217 -44098.3 -0)
(52490.6 -43164.5 -0)
(57917.1 -42098.9 -0)
(63477.1 -40896.3 -0)
(69147.5 -39553.7 -0)
(74900.9 -38071.1 -0)
(80706.6 -36451.4 -0)
(86530.2 -34700.9 -0)
(92334.9 -32830.1 -0)
(98081.2 -30853.2 -0)
(103729 -28787.9 -0)
(109239 -26655.8 -0)
(114570 -24481.3 -0)
(119685 -22290.7 -0)
(124550 -20111.5 -0)
(129136 -17971.3 -0)
(133416 -15896.7 -0)
(137371 -13912.1 -0)
(140987 -12038.9 -0)
(144181 -10342.9 -0)
(146845 -8897.41 -0)
(149010 -7696.18 -0)
(150779 -6693.68 -0)
(152234 -5852.94 -0)
(153437 -5144.02 -0)
(154438 -4542.76 -0)
(155274 -4029.74 -0)
(155976 -3589.31 -0)
(156568 -3208.89 -0)
(157069 -2878.29 -0)
(157493 -2589.23 -0)
(157855 -2334.97 -0)
(158164 -2110.05 -0)
(158427 -1909.96 -0)
(158653 -1730.98 -0)
(158846 -1570.09 -0)
(159012 -1424.75 -0)
(159154 -1292.84 -0)
(159276 -1172.59 -0)
(159380 -1062.55 -0)
(159470 -961.483 -0)
(159546 -868.336 -0)
(159611 -782.208 -0)
(159666 -702.335 -0)
(159712 -628.082 -0)
(159752 -558.88 -0)
(159784 -494.247 -0)
(159812 -433.763 -0)
(159829 -377.075 -0)
(1640.64 -61202.8 -0)
(5013.79 -61155.2 -0)
(8573.73 -61052.1 -0)
(12326.1 -60884.4 -0)
(16275.5 -60642.5 -0)
(20425.2 -60315.8 -0)
(24777 -59893.2 -0)
(29330.5 -59363 -0)
(34083.3 -58713.3 -0)
(39029.9 -57931.9 -0)
(44162.1 -57007.3 -0)
(49468.1 -55928.3 -0)
(54932.3 -54685.4 -0)
(60535.2 -53270.8 -0)
(66253.4 -51679.1 -0)
(72059.5 -49908.2 -0)
(77922.2 -47959.4 -0)
(83807.3 -45838.7 -0)
(89677.5 -43556.4 -0)
(95493.5 -41127.7 -0)
(101215 -38572.9 -0)
(106803 -35916.2 -0)
(112217 -33186.4 -0)
(117421 -30415.2 -0)
(122381 -27636.3 -0)
(127067 -24884.3 -0)
(131456 -22193.2 -0)
(135527 -19595.1 -0)
(139266 -17119.3 -0)
(142667 -14790.6 -0)
(145655 -12689 -0)
(148137 -10902.8 -0)
(150145 -9421.71 -0)
(151782 -8187.96 -0)
(153125 -7154.86 -0)
(154233 -6284.85 -0)
(155153 -5547.73 -0)
(155921 -4919.36 -0)
(156565 -4380.32 -0)
(157107 -3915.03 -0)
(157565 -3510.89 -0)
(157954 -3157.69 -0)
(158284 -2847.16 -0)
(158566 -2572.55 -0)
(158806 -2328.33 -0)
(159012 -2109.93 -0)
(159188 -1913.65 -0)
(159339 -1736.38 -0)
(159469 -1575.5 -0)
(159580 -1428.89 -0)
(159675 -1294.72 -0)
(159756 -1171.51 -0)
(159825 -1057.96 -0)
(159884 -952.983 -0)
(159934 -855.633 -0)
(159976 -765.137 -0)
(160012 -680.8 -0)
(160042 -602.034 -0)
(160067 -528.327 -0)
(160082 -459.247 -0)
(1743.03 -74376.5 -0)
(5326.39 -74314.8 -0)
(9107.19 -74181 -0)
(13090.5 -73963.4 -0)
(17280 -73649.6 -0)
(21677.7 -73226.3 -0)
(26283.6 -72679.2 -0)
(31095.3 -71993.7 -0)
(36107.4 -71154.8 -0)
(41311.4 -70148 -0)
(46695 -68959.1 -0)
(52242.3 -67575.4 -0)
(57933 -65986.2 -0)
(63742.6 -64183.4 -0)
(69642.7 -62162.5 -0)
(75600.8 -59923.1 -0)
(81581.3 -57469.9 -0)
(87545.8 -54812.7 -0)
(93454.3 -51967.4 -0)
(99265.7 -48955.4 -0)
(104939 -45804 -0)
(110436 -42545 -0)
(115720 -39214.7 -0)
(120758 -35852.3 -0)
(125520 -32498.6 -0)
(129984 -29194.5 -0)
(134132 -25979.4 -0)
(137951 -22889.9 -0)
(141434 -19958.6 -0)
(144581 -17212.5 -0)
(147329 -14743.1 -0)
(149600 -12650.9 -0)
(151429 -10920.5 -0)
(152914 -9482.06 -0)
(154129 -8279.59 -0)
(155129 -7268.38 -0)
(155958 -6412.66 -0)
(156648 -5683.91 -0)
(157226 -5059.29 -0)
(157711 -4520.52 -0)
(158122 -4052.85 -0)
(158469 -3644.36 -0)
(158764 -3285.37 -0)
(159016 -2968.03 -0)
(159231 -2685.91 -0)
(159414 -2433.7 -0)
(159571 -2207.08 -0)
(159706 -2002.45 -0)
(159821 -1816.79 -0)
(159920 -1647.61 -0)
(160004 -1492.82 -0)
(160076 -1350.68 -0)
(160138 -1219.7 -0)
(160190 -1098.61 -0)
(160234 -986.333 -0)
(160272 -881.962 -0)
(160303 -784.7 -0)
(160329 -693.865 -0)
(160351 -608.869 -0)
(160364 -529.21 -0)
(1867.28 -87672.3 -0)
(5705.68 -87593.8 -0)
(9754.27 -87423.7 -0)
(14017.2 -87147.3 -0)
(18497 -86748.9 -0)
(23193.7 -86211.9 -0)
(28104.9 -85518.8 -0)
(33225.3 -84651.8 -0)
(38545.8 -83592.8 -0)
(44053.5 -82324.7 -0)
(49731.4 -80831.3 -0)
(55557.9 -79098.7 -0)
(61506.9 -77115.9 -0)
(67548.1 -74875.6 -0)
(73646.8 -72375.4 -0)
(79765.3 -69618.4 -0)
(85862.8 -66614 -0)
(91897.4 -63377.9 -0)
(97826.1 -59932.9 -0)
(103607 -56308.3 -0)
(109200 -52539.3 -0)
(114570 -48665.9 -0)
(119682 -44732.3 -0)
(124509 -40785.2 -0)
(129030 -36871.7 -0)
(133228 -33038.1 -0)
(137093 -29327.9 -0)
(140621 -25780.9 -0)
(143812 -22431.4 -0)
(146671 -19307.1 -0)
(149151 -16508.7 -0)
(151187 -14145.6 -0)
(152818 -12196.5 -0)
(154137 -10579.8 -0)
(155212 -9230.81 -0)
(156094 -8098.13 -0)
(156823 -7140.83 -0)
(157429 -6326.45 -0)
(157935 -5629.07 -0)
(158360 -5028 -0)
(158718 -4506.59 -0)
(159021 -4051.42 -0)
(159279 -3651.61 -0)
(159498 -3298.34 -0)
(159685 -2984.38 -0)
(159844 -2703.79 -0)
(159981 -2451.75 -0)
(160097 -2224.21 -0)
(160197 -2017.81 -0)
(160283 -1829.76 -0)
(160356 -1657.74 -0)
(160418 -1499.79 -0)
(160471 -1354.26 -0)
(160517 -1219.74 -0)
(160555 -1095.01 -0)
(160587 -979.07 -0)
(160614 -871.037 -0)
(160637 -770.149 -0)
(160656 -675.749 -0)
(160666 -587.28 -0)
(2015.67 -101199 -0)
(6158.56 -101100 -0)
(10526.6 -100886 -0)
(15122.6 -100540 -0)
(19947.3 -100040 -0)
(24998.1 -99367.6 -0)
(30269.5 -98501 -0)
(35752 -97418.7 -0)
(41431.7 -96100.1 -0)
(47290 -94525.4 -0)
(53303.7 -92677 -0)
(59444.5 -90540.7 -0)
(65679.2 -88106.3 -0)
(71970.3 -85368.9 -0)
(78276.6 -82330 -0)
(84554.3 -78997.9 -0)
(90758 -75388.8 -0)
(96842.2 -71526.3 -0)
(102763 -67441.8 -0)
(108478 -63173.5 -0)
(113949 -58765.9 -0)
(119145 -54267.6 -0)
(124039 -49730.5 -0)
(128610 -45208.2 -0)
(132843 -40753.2 -0)
(136732 -36415.8 -0)
(140274 -32242.4 -0)
(143474 -28274 -0)
(146340 -24545.2 -0)
(148885 -21082.9 -0)
(151073 -17994.4 -0)
(152856 -15395.6 -0)
(154276 -13258 -0)
(155417 -11489.1 -0)
(156343 -10016 -0)
(157101 -8780.97 -0)
(157724 -7738.57 -0)
(158242 -6852.78 -0)
(158673 -6094.95 -0)
(159034 -5442.31 -0)
(159338 -4876.56 -0)
(159595 -4382.97 -0)
(159813 -3949.62 -0)
(159998 -3566.88 -0)
(160155 -3226.87 -0)
(160290 -2923.1 -0)
(160405 -2650.31 -0)
(160503 -2404.1 -0)
(160587 -2180.8 -0)
(160659 -1977.4 -0)
(160720 -1791.36 -0)
(160773 -1620.56 -0)
(160817 -1463.22 -0)
(160855 -1317.78 -0)
(160887 -1182.94 -0)
(160914 -1057.62 -0)
(160936 -940.847 -0)
(160955 -831.803 -0)
(160970 -729.774 -0)
(160978 -634.16 -0)
(2191.25 -115061 -0)
(6694.35 -114938 -0)
(11439.9 -114672 -0)
(16428.8 -114240 -0)
(21659.1 -113618 -0)
(27124.9 -112782 -0)
(32816 -111706 -0)
(38717.6 -110366 -0)
(44809.4 -108738 -0)
(51065.7 -106801 -0)
(57455.4 -104536 -0)
(63941.8 -101929 -0)
(70483.5 -98973.6 -0)
(77035.1 -95669 -0)
(83548.1 -92022.7 -0)
(89973 -88050.7 -0)
(96260.1 -83778.2 -0)
(102362 -79238.7 -0)
(108234 -74473.9 -0)
(113837 -69532.3 -0)
(119137 -64467.9 -0)
(124108 -59337.9 -0)
(128732 -54201.6 -0)
(132996 -49118.3 -0)
(136895 -44144.5 -0)
(140432 -39333.1 -0)
(143614 -34731.3 -0)
(146454 -30380 -0)
(148969 -26312.3 -0)
(151176 -22552.9 -0)
(153055 -19213.5 -0)
(154571 -16413.5 -0)
(155769 -14117 -0)
(156726 -12221.1 -0)
(157499 -10645.2 -0)
(158127 -9326.15 -0)
(158642 -8214.31 -0)
(159068 -7270.57 -0)
(159422 -6463.94 -0)
(159718 -5769.83 -0)
(159967 -5168.54 -0)
(160176 -4644.25 -0)
(160354 -4184.2 -0)
(160504 -3778.04 -0)
(160632 -3417.37 -0)
(160741 -3095.24 -0)
(160835 -2806.04 -0)
(160914 -2545.09 -0)
(160982 -2308.48 -0)
(161040 -2092.98 -0)
(161089 -1895.91 -0)
(161131 -1715.02 -0)
(161167 -1548.39 -0)
(161197 -1394.39 -0)
(161222 -1251.63 -0)
(161244 -1118.95 -0)
(161262 -995.331 -0)
(161277 -879.9 -0)
(161289 -771.9 -0)
(161294 -670.693 -0)
(2398.03 -129366 -0)
(7325.13 -129213 -0)
(12514.4 -128882 -0)
(17964.3 -128345 -0)
(23668.8 -127574 -0)
(29617.3 -126538 -0)
(35793.6 -125210 -0)
(42175.5 -123559 -0)
(48734.7 -121560 -0)
(55436.4 -119190 -0)
(62239.5 -116432 -0)
(69097.7 -113276 -0)
(75960.2 -109718 -0)
(82772.7 -105765 -0)
(89480 -101435 -0)
(96027.2 -96752.1 -0)
(102362 -91754.3 -0)
(108436 -86486.7 -0)
(114208 -81002.7 -0)
(119642 -75361.7 -0)
(124713 -69627.4 -0)
(129402 -63865.1 -0)
(133701 -58140 -0)
(137607 -52515.7 -0)
(141126 -47051.2 -0)
(144272 -41799.8 -0)
(147060 -36807.9 -0)
(149512 -32114.4 -0)
(151652 -27749.3 -0)
(153504 -23733.9 -0)
(155060 -20182.1 -0)
(156302 -17214.5 -0)
(157272 -14787.6 -0)
(158041 -12788.7 -0)
(158656 -11130.3 -0)
(159154 -9744.43 -0)
(159560 -8577.82 -0)
(159894 -7588.69 -0)
(160170 -6744.06 -0)
(160401 -6017.83 -0)
(160593 -5389.16 -0)
(160755 -4841.31 -0)
(160892 -4360.82 -0)
(161008 -3936.82 -0)
(161107 -3560.43 -0)
(161190 -3224.37 -0)
(161262 -2922.76 -0)
(161322 -2650.67 -0)
(161374 -2404.01 -0)
(161418 -2179.41 -0)
(161455 -1974.04 -0)
(161487 -1785.55 -0)
(161514 -1611.95 -0)
(161537 -1451.53 -0)
(161556 -1302.82 -0)
(161572 -1164.63 -0)
(161585 -1035.89 -0)
(161596 -915.681 -0)
(161605 -803.219 -0)
(161607 -697.836 -0)
(2641.09 -144224 -0)
(8066.35 -144034 -0)
(13776.3 -143622 -0)
(19765.3 -142956 -0)
(26022.3 -142000 -0)
(32529.8 -140720 -0)
(39263.5 -139082 -0)
(46191.9 -137053 -0)
(53275.8 -134606 -0)
(60469 -131719 -0)
(67718.9 -128378 -0)
(74967.7 -124577 -0)
(82154.2 -120323 -0)
(89215.8 -115632 -0)
(96090.6 -110533 -0)
(102720 -105065 -0)
(109052 -99278.9 -0)
(115039 -93234.3 -0)
(120647 -86996.8 -0)
(125847 -80636.8 -0)
(130624 -74227 -0)
(134969 -67839.2 -0)
(138885 -61543.3 -0)
(142383 -55405 -0)
(145479 -49483.2 -0)
(148196 -43830.2 -0)
(150561 -38489.4 -0)
(152602 -33496 -0)
(154350 -28875.9 -0)
(155836 -24645.4 -0)
(157061 -20918.7 -0)
(158022 -17815.9 -0)
(158763 -15285.5 -0)
(159342 -13206.1 -0)
(159800 -11484.2 -0)
(160167 -10047.5 -0)
(160464 -8839.6 -0)
(160706 -7816.63 -0)
(160906 -6943.9 -0)
(161071 -6194.1 -0)
(161208 -5545.45 -0)
(161324 -4980.52 -0)
(161421 -4485.3 -0)
(161502 -4048.48 -0)
(161571 -3660.85 -0)
(161630 -3314.87 -0)
(161680 -3004.44 -0)
(161722 -2724.46 -0)
(161758 -2470.7 -0)
(161788 -2239.66 -0)
(161814 -2028.45 -0)
(161835 -1834.63 -0)
(161853 -1656.14 -0)
(161869 -1491.21 -0)
(161882 -1338.34 -0)
(161892 -1196.3 -0)
(161901 -1063.98 -0)
(161908 -940.432 -0)
(161914 -824.856 -0)
(161914 -716.561 -0)
(2926.92 -159753 -0)
(8937.66 -159516 -0)
(15258.3 -159005 -0)
(21877.7 -158177 -0)
(28777.2 -156992 -0)
(35930.3 -155409 -0)
(43301.6 -153388 -0)
(50847 -150897 -0)
(58514 -147908 -0)
(66242.2 -144400 -0)
(73965.2 -140368 -0)
(81612.9 -135814 -0)
(89113.2 -130756 -0)
(96395.7 -125226 -0)
(103394 -119268 -0)
(110049 -112939 -0)
(116311 -106305 -0)
(122140 -99440.1 -0)
(127509 -92422.5 -0)
(132401 -85332.9 -0)
(136812 -78251.3 -0)
(140749 -71254.3 -0)
(144227 -64413.8 -0)
(147268 -57795.1 -0)
(149900 -51455.3 -0)
(152157 -45442.9 -0)
(154074 -39796.9 -0)
(155686 -34547.2 -0)
(157030 -29714.1 -0)
(158140 -25308.5 -0)
(159031 -21443.1 -0)
(159712 -18235.7 -0)
(160222 -15627 -0)
(160613 -13488.1 -0)
(160916 -11720.1 -0)
(161154 -10247.2 -0)
(161343 -9010.43 -0)
(161496 -7964.08 -0)
(161620 -7072.19 -0)
(161721 -6306.52 -0)
(161805 -5644.57 -0)
(161875 -5068.37 -0)
(161932 -4563.5 -0)
(161981 -4118.36 -0)
(162022 -3723.49 -0)
(162056 -3371.15 -0)
(162084 -3055.09 -0)
(162109 -2770.1 -0)
(162129 -2511.86 -0)
(162146 -2276.78 -0)
(162160 -2061.9 -0)
(162172 -1864.74 -0)
(162182 -1683.2 -0)
(162190 -1515.46 -0)
(162197 -1360.02 -0)
(162202 -1215.59 -0)
(162206 -1081.05 -0)
(162210 -955.451 -0)
(162212 -837.959 -0)
(162210 -727.877 -0)
(3263.81 -176085 -0)
(9964.1 -175790 -0)
(17002.4 -175152 -0)
(24359.3 -174121 -0)
(32006.1 -172648 -0)
(39903.2 -170687 -0)
(48000.6 -168194 -0)
(56238 -165135 -0)
(64545.7 -161485 -0)
(72846.5 -157232 -0)
(81058.6 -152380 -0)
(89098.5 -146946 -0)
(96884.4 -140965 -0)
(104340 -134489 -0)
(111399 -127581 -0)
(118004 -120317 -0)
(124113 -112781 -0)
(129697 -105061 -0)
(134742 -97246.8 -0)
(139246 -89428.2 -0)
(143219 -81689.7 -0)
(146683 -74109.6 -0)
(149667 -66759 -0)
(152206 -59700.5 -0)
(154339 -52986.6 -0)
(156109 -46660.3 -0)
(157558 -40754.4 -0)
(158729 -35292.2 -0)
(159662 -30287.8 -0)
(160395 -25745.7 -0)
(160952 -21775.8 -0)
(161353 -18492.5 -0)
(161637 -15829 -0)
(161842 -13649.7 -0)
(161993 -11851.5 -0)
(162105 -10355.6 -0)
(162191 -9100.99 -0)
(162256 -8040.63 -0)
(162307 -7137.57 -0)
(162347 -6362.86 -0)
(162378 -5693.51 -0)
(162403 -5111.18 -0)
(162424 -4601.18 -0)
(162440 -4151.68 -0)
(162453 -3753.08 -0)
(162464 -3397.51 -0)
(162472 -3078.64 -0)
(162479 -2791.18 -0)
(162485 -2530.73 -0)
(162489 -2293.7 -0)
(162492 -2077.06 -0)
(162495 -1878.31 -0)
(162496 -1695.33 -0)
(162498 -1526.28 -0)
(162498 -1369.62 -0)
(162499 -1224.09 -0)
(162499 -1088.54 -0)
(162498 -961.993 -0)
(162498 -843.626 -0)
(162493 -732.732 -0)
(3662.4 -193370 -0)
(11177.8 -193000 -0)
(19061.9 -192200 -0)
(27283.8 -190911 -0)
(35799.9 -189074 -0)
(44553.2 -186636 -0)
(53473.9 -183554 -0)
(62480.8 -179795 -0)
(71483.2 -175340 -0)
(80384.2 -170192 -0)
(89085.4 -164370 -0)
(97490.8 -157913 -0)
(105511 -150881 -0)
(113070 -143346 -0)
(120102 -135398 -0)
(126562 -127132 -0)
(132419 -118649 -0)
(137660 -110052 -0)
(142288 -101439 -0)
(146319 -92905.6 -0)
(149781 -84537 -0)
(152710 -76410.1 -0)
(155149 -68592.3 -0)
(157146 -61140.5 -0)
(158751 -54100.5 -0)
(160013 -47508.1 -0)
(160981 -41388.3 -0)
(161704 -35757.3 -0)
(162223 -30621.8 -0)
(162580 -25980 -0)
(162806 -21937.7 -0)
(162934 -18604.8 -0)
(162996 -15907.8 -0)
(163021 -13705.6 -0)
(163025 -11891.4 -0)
(163015 -10384.2 -0)
(163000 -9121.61 -0)
(162981 -8055.51 -0)
(162962 -7148.31 -0)
(162942 -6370.57 -0)
(162924 -5699 -0)
(162907 -5115.04 -0)
(162891 -4603.82 -0)
(162877 -4153.41 -0)
(162863 -3754.13 -0)
(162852 -3398.07 -0)
(162841 -3078.81 -0)
(162831 -2791.06 -0)
(162823 -2530.41 -0)
(162815 -2293.22 -0)
(162807 -2076.47 -0)
(162801 -1877.64 -0)
(162795 -1694.6 -0)
(162790 -1525.52 -0)
(162785 -1368.85 -0)
(162780 -1223.32 -0)
(162776 -1087.77 -0)
(162773 -961.248 -0)
(162769 -842.909 -0)
(162762 -732.049 -0)
(4136.51 -211780 -0)
(12620.3 -211312 -0)
(21505.8 -210304 -0)
(30745.1 -208683 -0)
(40273.7 -206381 -0)
(50010.7 -203341 -0)
(59860 -199520 -0)
(69713.7 -194893 -0)
(79455.9 -189458 -0)
(88968.1 -183235 -0)
(98135.8 -176270 -0)
(106853 -168633 -0)
(115030 -160411 -0)
(122592 -151708 -0)
(129488 -142636 -0)
(135686 -133312 -0)
(141177 -123854 -0)
(145968 -114374 -0)
(150081 -104976 -0)
(153555 -95755 -0)
(156433 -86795.2 -0)
(158769 -78167.7 -0)
(160619 -69932.7 -0)
(162041 -62139.2 -0)
(163094 -54824.1 -0)
(163834 -48014.4 -0)
(164314 -41726.8 -0)
(164586 -35969.3 -0)
(164695 -30741.2 -0)
(164681 -26034.1 -0)
(164583 -21949 -0)
(164444 -18590.6 -0)
(164292 -15879.3 -0)
(164143 -13669.6 -0)
(164005 -11852 -0)
(163879 -10344 -0)
(163767 -9082.02 -0)
(163668 -8017.43 -0)
(163581 -7112.19 -0)
(163506 -6336.64 -0)
(163440 -5667.33 -0)
(163382 -5085.6 -0)
(163332 -4576.55 -0)
(163289 -4128.2 -0)
(163251 -3730.87 -0)
(163218 -3376.62 -0)
(163189 -3059.08 -0)
(163163 -2772.92 -0)
(163141 -2513.75 -0)
(163122 -2277.94 -0)
(163105 -2062.48 -0)
(163090 -1864.86 -0)
(163076 -1682.95 -0)
(163065 -1514.93 -0)
(163055 -1359.26 -0)
(163046 -1214.67 -0)
(163038 -1080.01 -0)
(163031 -954.321 -0)
(163025 -836.774 -0)
(163016 -726.664 -0)
(4704.36 -231522 -0)
(14346.4 -230928 -0)
(24424.1 -229648 -0)
(34865 -227595 -0)
(45574.8 -224693 -0)
(56439.5 -220884 -0)
(67328.5 -216132 -0)
(78100.8 -210428 -0)
(88611.8 -203795 -0)
(98721.2 -196287 -0)
(108301 -187986 -0)
(117243 -178998 -0)
(125462 -169448 -0)
(132899 -159471 -0)
(139523 -149205 -0)
(145326 -138787 -0)
(150324 -128343 -0)
(154550 -117993 -0)
(158051 -107840 -0)
(160884 -97974.8 -0)
(163113 -88474.5 -0)
(164805 -79401.2 -0)
(166028 -70805.2 -0)
(166849 -62725 -0)
(167334 -55187.3 -0)
(167543 -48209.6 -0)
(167534 -41799 -0)
(167359 -35955.6 -0)
(167062 -30670.9 -0)
(166686 -25930.3 -0)
(166274 -21829.3 -0)
(165877 -18467.1 -0)
(165520 -15758.4 -0)
(165204 -13554.9 -0)
(164930 -11745 -0)
(164694 -10245.2 -0)
(164490 -8991.32 -0)
(164315 -7934.46 -0)
(164165 -7036.43 -0)
(164036 -6267.53 -0)
(163925 -5604.29 -0)
(163829 -5028.1 -0)
(163747 -4524.08 -0)
(163676 -4080.31 -0)
(163615 -3687.15 -0)
(163561 -3336.7 -0)
(163515 -3022.62 -0)
(163475 -2739.64 -0)
(163440 -2483.38 -0)
(163410 -2250.25 -0)
(163383 -2037.26 -0)
(163360 -1841.93 -0)
(163340 -1662.15 -0)
(163323 -1496.11 -0)
(163308 -1342.29 -0)
(163294 -1199.42 -0)
(163283 -1066.38 -0)
(163273 -942.221 -0)
(163264 -826.108 -0)
(163253 -717.353 -0)
(5390.18 -252844 -0)
(16428.5 -252080 -0)
(27935.2 -250440 -0)
(39801.4 -247820 -0)
(51890.6 -244137 -0)
(64043.1 -239339 -0)
(76083.9 -233406 -0)
(87832.6 -226363 -0)
(99113.8 -218273 -0)
(109769 -209237 -0)
(119665 -199385 -0)
(128701 -188872 -0)
(136810 -177863 -0)
(143961 -166523 -0)
(150152 -155015 -0)
(155410 -143486 -0)
(159780 -132071 -0)
(163326 -120884 -0)
(166118 -110025 -0)
(168235 -99572.4 -0)
(169756 -89592.9 -0)
(170761 -80135.9 -0)
(171329 -71239.3 -0)
(171532 -62929.7 -0)
(171440 -55222.5 -0)
(171117 -48124.7 -0)
(170622 -41634.3 -0)
(170006 -35743.1 -0)
(169315 -30435.2 -0)
(168587 -25690 -0)
(167873 -21597.1 -0)
(167229 -18250.2 -0)
(166675 -15559.2 -0)
(166202 -13373.8 -0)
(165799 -11581.1 -0)
(165457 -10097.2 -0)
(165167 -8857.83 -0)
(164920 -7814 -0)
(164710 -6927.62 -0)
(164531 -6169.12 -0)
(164378 -5515.18 -0)
(164247 -4947.3 -0)
(164134 -4450.72 -0)
(164037 -4013.63 -0)
(163954 -3626.48 -0)
(163882 -3281.48 -0)
(163820 -2972.33 -0)
(163766 -2693.84 -0)
(163719 -2441.68 -0)
(163679 -2212.31 -0)
(163643 -2002.78 -0)
(163613 -1810.63 -0)
(163586 -1633.8 -0)
(163563 -1470.5 -0)
(163543 -1319.23 -0)
(163526 -1178.74 -0)
(163511 -1047.93 -0)
(163499 -925.861 -0)
(163487 -811.713 -0)
(163474 -704.81 -0)
(6226.99 -276053 -0)
(18964.8 -275061 -0)
(32198.2 -272937 -0)
(45763.6 -269560 -0)
(59464 -264848 -0)
(73078 -258766 -0)
(86374.6 -251334 -0)
(99128.9 -242627 -0)
(111138 -232770 -0)
(122235 -221932 -0)
(132297 -210306 -0)
(141245 -198097 -0)
(149051 -185513 -0)
(155722 -172748 -0)
(161300 -159976 -0)
(165852 -147352 -0)
(169458 -135003 -0)
(172211 -123036 -0)
(174206 -111535 -0)
(175539 -100565 -0)
(176304 -90176.4 -0)
(176591 -80403.1 -0)
(176483 -71269 -0)
(176058 -62787.7 -0)
(175388 -54963 -0)
(174537 -47791.4 -0)
(173564 -41261.8 -0)
(172519 -35358.1 -0)
(171445 -30057.2 -0)
(170379 -25333.3 -0)
(169376 -21269.9 -0)
(168498 -17955 -0)
(167757 -15294.6 -0)
(167134 -13137.4 -0)
(166611 -11370 -0)
(166170 -9908.61 -0)
(165799 -8689.09 -0)
(165485 -7662.71 -0)
(165219 -6791.7 -0)
(164992 -6046.74 -0)
(164800 -5404.75 -0)
(164635 -4847.46 -0)
(164494 -4360.3 -0)
(164373 -3931.63 -0)
(164269 -3552.02 -0)
(164180 -3213.8 -0)
(164103 -2910.79 -0)
(164036 -2637.86 -0)
(163978 -2390.77 -0)
(163928 -2166.04 -0)
(163885 -1960.76 -0)
(163847 -1772.54 -0)
(163815 -1599.32 -0)
(163787 -1439.38 -0)
(163762 -1291.23 -0)
(163741 -1153.66 -0)
(163723 -1025.57 -0)
(163708 -906.053 -0)
(163695 -794.302 -0)
(163680 -689.655 -0)
(7260.87 -301543 -0)
(22092 -300237 -0)
(37431.1 -297449 -0)
(53032.9 -293047 -0)
(68613.2 -286963 -0)
(83868.2 -279205 -0)
(98499.8 -269861 -0)
(112240 -259090 -0)
(124870 -247110 -0)
(136235 -234173 -0)
(146243 -220547 -0)
(154866 -206492 -0)
(162131 -192250 -0)
(168101 -178030 -0)
(172871 -164010 -0)
(176551 -150336 -0)
(179260 -137121 -0)
(181116 -124450 -0)
(182236 -112388 -0)
(182731 -100981 -0)
(182704 -90258.4 -0)
(182250 -80239.1 -0)
(181456 -70931.3 -0)
(180402 -62335.2 -0)
(179159 -54442.8 -0)
(177790 -47241 -0)
(176351 -40709.5 -0)
(174891 -34825.3 -0)
(173450 -29558.7 -0)
(172061 -24878.9 -0)
(170783 -20863.4 -0)
(169683 -17594.9 -0)
(168766 -14976.1 -0)
(168003 -12855.7 -0)
(167366 -11120.5 -0)
(166833 -9687.08 -0)
(166385 -8491.83 -0)
(166008 -7486.56 -0)
(165690 -6633.95 -0)
(165420 -5905.07 -0)
(165190 -5277.21 -0)
(164995 -4732.36 -0)
(164828 -4256.24 -0)
(164684 -3837.37 -0)
(164561 -3466.54 -0)
(164456 -3136.19 -0)
(164364 -2840.28 -0)
(164286 -2573.78 -0)
(164218 -2332.54 -0)
(164159 -2113.14 -0)
(164108 -1912.76 -0)
(164064 -1729.04 -0)
(164026 -1559.98 -0)
(163993 -1403.89 -0)
(163965 -1259.32 -0)
(163940 -1125.08 -0)
(163919 -1000.11 -0)
(163901 -883.51 -0)
(163886 -774.5 -0)
(163869 -672.432 -0)
(8557.42 -329821 -0)
(26002.6 -328072 -0)
(43937.3 -324357 -0)
(61991 -318543 -0)
(79754.5 -310607 -0)
(96818.1 -300645 -0)
(112811 -288862 -0)
(127436 -275548 -0)
(140486 -261043 -0)
(151851 -245706 -0)
(161509 -229877 -0)
(169511 -213862 -0)
(175958 -197922 -0)
(180986 -182265 -0)
(184747 -167055 -0)
(187395 -152411 -0)
(189083 -138420 -0)
(189953 -125141 -0)
(190136 -112612 -0)
(189752 -100854 -0)
(188909 -89878 -0)
(187703 -79683.9 -0)
(186223 -70265 -0)
(184545 -61608.6 -0)
(182739 -53695.7 -0)
(180866 -46503.7 -0)
(178977 -40004.4 -0)
(177119 -34168.3 -0)
(175327 -28959.7 -0)
(173632 -24343.9 -0)
(172095 -20392.3 -0)
(170785 -17182.3 -0)
(169704 -14614.4 -0)
(168809 -12537.9 -0)
(168066 -10840.4 -0)
(167446 -9439.4 -0)
(166928 -8272.03 -0)
(166492 -7290.81 -0)
(166125 -6459.04 -0)
(165815 -5748.28 -0)
(165551 -5136.27 -0)
(165327 -4605.35 -0)
(165135 -4141.52 -0)
(164971 -3733.57 -0)
(164831 -3372.47 -0)
(164710 -3050.85 -0)
(164606 -2762.8 -0)
(164516 -2503.4 -0)
(164439 -2268.62 -0)
(164372 -2055.11 -0)
(164314 -1860.13 -0)
(164264 -1681.36 -0)
(164221 -1516.88 -0)
(164184 -1365.02 -0)
(164151 -1224.38 -0)
(164124 -1093.81 -0)
(164100 -972.258 -0)
(164080 -858.861 -0)
(164062 -752.856 -0)
(164044 -653.618 -0)
(10213.1 -361560 -0)
(30977.1 -359169 -0)
(52148.8 -354126 -0)
(73163.7 -346330 -0)
(93436.6 -335865 -0)
(112430 -322991 -0)
(129713 -308109 -0)
(144996 -291694 -0)
(158136 -274243 -0)
(169123 -256222 -0)
(178049 -238033 -0)
(185075 -220005 -0)
(190400 -202390 -0)
(194236 -185369 -0)
(196792 -169068 -0)
(198262 -153568 -0)
(198824 -138918 -0)
(198636 -125140 -0)
(197837 -112245 -0)
(196548 -100228 -0)
(194878 -89079 -0)
(192921 -78780 -0)
(190761 -69310 -0)
(188472 -60644.4 -0)
(186119 -52754.2 -0)
(183759 -45608.4 -0)
(181439 -39171.5 -0)
(179202 -33408.6 -0)
(177078 -28278.7 -0)
(175094 -23743.9 -0)
(173312 -19869.5 -0)
(171806 -16728.2 -0)
(170571 -14218.7 -0)
(169553 -12192 -0)
(168712 -10536.6 -0)
(168012 -9171.59 -0)
(167428 -8034.94 -0)
(166939 -7080.09 -0)
(166527 -6271.05 -0)
(166179 -5580.01 -0)
(165884 -4985.18 -0)
(165633 -4469.32 -0)
(165418 -4018.76 -0)
(165235 -3622.57 -0)
(165078 -3271.94 -0)
(164944 -2959.7 -0)
(164828 -2680.08 -0)
(164728 -2428.31 -0)
(164642 -2200.44 -0)
(164567 -1993.24 -0)
(164503 -1804.03 -0)
(164448 -1630.57 -0)
(164400 -1470.97 -0)
(164359 -1323.63 -0)
(164323 -1187.19 -0)
(164292 -1060.53 -0)
(164266 -942.63 -0)
(164244 -832.648 -0)
(164224 -729.848 -0)
(164205 -633.626 -0)
(12374.4 -397682 -0)
(37435.9 -394329 -0)
(62695.1 -387330 -0)
(87284.7 -376694 -0)
(110380 -362735 -0)
(131314 -346014 -0)
(149646 -327228 -0)
(165175 -307100 -0)
(177910 -286295 -0)
(188014 -265367 -0)
(195744 -244745 -0)
(201400 -224733 -0)
(205285 -205538 -0)
(207686 -187283 -0)
(208859 -170035 -0)
(209028 -153822 -0)
(208382 -138645 -0)
(207086 -124491 -0)
(205277 -111336 -0)
(203074 -99152 -0)
(200578 -87908.2 -0)
(197879 -77570.9 -0)
(195055 -68105.9 -0)
(192174 -59478.2 -0)
(189294 -51649.5 -0)
(186468 -44582.3 -0)
(183738 -38234.2 -0)
(181141 -32566.3 -0)
(178704 -27532.7 -0)
(176448 -23092.8 -0)
(174438 -19306.8 -0)
(172750 -16242.3 -0)
(171371 -13797.2 -0)
(170240 -11824.8 -0)
(169307 -10215.2 -0)
(168533 -8888.88 -0)
(167888 -7785.14 -0)
(167349 -6858.41 -0)
(166895 -6073.56 -0)
(166513 -5403.41 -0)
(166189 -4826.77 -0)
(165913 -4326.8 -0)
(165678 -3890.24 -0)
(165478 -3506.42 -0)
(165306 -3166.8 -0)
(165158 -2864.41 -0)
(165031 -2593.64 -0)
(164922 -2349.87 -0)
(164828 -2129.25 -0)
(164747 -1928.66 -0)
(164677 -1745.49 -0)
(164616 -1577.57 -0)
(164564 -1423.09 -0)
(164519 -1280.48 -0)
(164480 -1148.43 -0)
(164447 -1025.85 -0)
(164418 -911.758 -0)
(164394 -805.342 -0)
(164373 -705.887 -0)
(164352 -612.812 -0)
(15274.1 -439494 -0)
(46033.8 -434640 -0)
(76519.5 -424664 -0)
(105391 -409872 -0)
(131528 -391052 -0)
(154190 -369271 -0)
(173056 -345651 -0)
(188166 -321195 -0)
(199805 -296706 -0)
(208396 -272764 -0)
(214401 -249750 -0)
(218271 -227887 -0)
(220408 -207286 -0)
(221156 -187984 -0)
(220799 -169971 -0)
(219572 -153210 -0)
(217665 -137653 -0)
(215234 -123248 -0)
(212407 -109939 -0)
(209294 -97677.7 -0)
(205986 -86413.8 -0)
(202564 -76100.2 -0)
(199097 -66691.3 -0)
(195646 -58143.5 -0)
(192263 -50411 -0)
(188994 -43450.3 -0)
(185876 -37214 -0)
(182940 -31659.2 -0)
(180209 -26736.5 -0)
(177700 -22403.2 -0)
(175477 -18714.4 -0)
(173619 -15733.1 -0)
(172107 -13357.2 -0)
(170870 -11442.6 -0)
(169853 -9881.4 -0)
(169011 -8595.82 -0)
(168310 -7526.6 -0)
(167725 -6629.26 -0)
(167233 -5869.62 -0)
(166819 -5221.21 -0)
(166468 -4663.44 -0)
(166170 -4179.95 -0)
(165916 -3757.88 -0)
(165699 -3386.86 -0)
(165514 -3058.62 -0)
(165354 -2766.4 -0)
(165218 -2504.77 -0)
(165100 -2269.23 -0)
(164998 -2056.09 -0)
(164911 -1862.31 -0)
(164835 -1685.36 -0)
(164770 -1523.16 -0)
(164714 -1373.94 -0)
(164665 -1236.2 -0)
(164624 -1108.66 -0)
(164588 -990.271 -0)
(164557 -880.098 -0)
(164531 -777.344 -0)
(164508 -681.323 -0)
(164486 -591.48 -0)
(19302.1 -488946 -0)
(57836.4 -481625 -0)
(95074.9 -466942 -0)
(128958 -445943 -0)
(158085 -420342 -0)
(181851 -392004 -0)
(200330 -362566 -0)
(214035 -333267 -0)
(223683 -304931 -0)
(230023 -278039 -0)
(233744 -252824 -0)
(235428 -229353 -0)
(235543 -207601 -0)
(234461 -187489 -0)
(232468 -168920 -0)
(229788 -151791 -0)