/*--------------------------------*- C++ -*----------------------------------*\
| =========                 |                                                 |
| \\      /  F ield         | OpenFOAM: The Open Source CFD Toolbox           |
|  \\    /   O peration     | Version:  2406                                  |
|   \\  /    A nd           | Website:  www.openfoam.com                      |
|    \\/     M anipulation  |                                                 |
\*---------------------------------------------------------------------------*/
FoamFile
{
    version     2.0;
    format      ascii;
    arch        "LSB;label=32;scalar=64";
    class       volVectorField;
    location    "2e-07";
    object      EExtAmp;
}
// * * * * * * * * * * * * * * * * * * * * * * * * * * * * * * * * * * * * * //

dimensions      [1 1 -3 0 0 -1 0];

internalField   nonuniform List<vector> 
5880
(
(1.43028 -7.15145 -0)
(4.37144 -7.14666 -0)
(7.47707 -7.13627 -0)
(10.7536 -7.11935 -0)
(14.2071 -7.09492 -0)
(17.8428 -7.06188 -0)
(21.6652 -7.01905 -0)
(25.678 -6.96518 -0)
(29.8833 -6.89896 -0)
(34.2815 -6.81903 -0)
(38.8713 -6.72402 -0)
(43.649 -6.61258 -0)
(48.6079 -6.48343 -0)
(53.7387 -6.33542 -0)
(59.0283 -6.16761 -0)
(64.4602 -5.97931 -0)
(70.0139 -5.77016 -0)
(75.6647 -5.54025 -0)
(81.3841 -5.29013 -0)
(87.1395 -5.02091 -0)
(92.8947 -4.73432 -0)
(98.6111 -4.43264 -0)
(104.248 -4.11877 -0)
(109.761 -3.79614 -0)
(115.11 -3.46858 -0)
(120.253 -3.14025 -0)
(125.152 -2.81541 -0)
(129.771 -2.4983 -0)
(134.081 -2.19295 -0)
(138.059 -1.90295 -0)
(141.601 -1.63889 -0)
(144.576 -1.41276 -0)
(147.008 -1.22408 -0)
(149.006 -1.06611 -0)
(150.656 -0.933259 -0)
(152.025 -0.820987 -0)
(153.167 -0.725581 -0)
(154.124 -0.644046 -0)
(154.928 -0.573951 -0)
(155.608 -0.513335 -0)
(156.183 -0.460603 -0)
(156.673 -0.414456 -0)
(157.089 -0.373838 -0)
(157.445 -0.337883 -0)
(157.75 -0.305881 -0)
(158.011 -0.277245 -0)
(158.234 -0.251494 -0)
(158.426 -0.228225 -0)
(158.591 -0.207101 -0)
(158.732 -0.187842 -0)
(158.853 -0.170214 -0)
(158.957 -0.154019 -0)
(159.046 -0.139092 -0)
(159.121 -0.125288 -0)
(159.185 -0.112488 -0)
(159.24 -0.100591 -0)
(159.286 -0.0895098 -0)
(159.324 -0.0791687 -0)
(159.356 -0.069504 -0)
(159.377 -0.0604617 -0)
(1.45293 -21.1755 -0)
(4.44061 -21.1611 -0)
(7.5952 -21.1298 -0)
(10.9231 -21.0789 -0)
(14.4301 -21.0053 -0)
(18.1214 -20.9059 -0)
(22.0013 -20.7771 -0)
(26.0731 -20.6151 -0)
(30.3382 -20.4159 -0)
(34.7968 -20.1757 -0)
(39.4467 -19.8903 -0)
(44.2833 -19.5557 -0)
(49.2993 -19.1681 -0)
(54.4841 -18.7243 -0)
(59.8236 -18.2216 -0)
(65.3001 -17.6579 -0)
(70.8917 -17.0325 -0)
(76.5728 -16.3457 -0)
(82.3136 -15.5994 -0)
(88.0807 -14.7972 -0)
(93.8373 -13.9443 -0)
(99.5443 -13.0477 -0)
(105.161 -12.1162 -0)
(110.644 -11.16 -0)
(115.953 -10.1906 -0)
(121.047 -9.22023 -0)
(125.89 -8.26144 -0)
(130.448 -7.3267 -0)
(134.694 -6.42769 -0)
(138.606 -5.57484 -0)
(142.084 -4.79912 -0)
(145.002 -4.13538 -0)
(147.384 -3.58199 -0)
(149.339 -3.11893 -0)
(150.953 -2.72973 -0)
(152.291 -2.40094 -0)
(153.407 -2.12166 -0)
(154.341 -1.88305 -0)
(155.126 -1.67797 -0)
(155.789 -1.50066 -0)
(156.351 -1.34645 -0)
(156.828 -1.21151 -0)
(157.234 -1.09275 -0)
(157.581 -0.987635 -0)
(157.878 -0.894079 -0)
(158.132 -0.810362 -0)
(158.35 -0.73508 -0)
(158.537 -0.667055 -0)
(158.698 -0.605303 -0)
(158.835 -0.549006 -0)
(158.953 -0.497481 -0)
(159.054 -0.450155 -0)
(159.14 -0.40654 -0)
(159.214 -0.366217 -0)
(159.276 -0.328829 -0)
(159.329 -0.294081 -0)
(159.374 -0.261709 -0)
(159.411 -0.231488 -0)
(159.442 -0.203224 -0)
(159.462 -0.176752 -0)
(1.49601 -34.7424 -0)
(4.57216 -34.718 -0)
(7.81983 -34.6651 -0)
(11.2452 -34.5789 -0)
(14.854 -34.4544 -0)
(18.651 -34.2862 -0)
(22.6398 -34.0683 -0)
(26.8231 -33.7945 -0)
(31.2016 -33.4582 -0)
(35.774 -33.0527 -0)
(40.5371 -32.5713 -0)
(45.4845 -32.0076 -0)
(50.6072 -31.3556 -0)
(55.8926 -30.61 -0)
(61.3244 -29.7666 -0)
(66.8826 -28.8227 -0)
(72.5432 -27.7774 -0)
(78.2783 -26.6319 -0)
(84.0562 -25.39 -0)
(89.8418 -24.0582 -0)
(95.5974 -22.6459 -0)
(101.283 -21.165 -0)
(106.858 -19.6304 -0)
(112.281 -18.0595 -0)
(117.512 -16.471 -0)
(122.514 -14.8851 -0)
(127.251 -13.3221 -0)
(131.695 -11.8019 -0)
(135.82 -10.3432 -0)
(139.609 -8.96223 -0)
(142.969 -7.70862 -0)
(145.78 -6.63778 -0)
(148.071 -5.7462 -0)
(149.948 -5.00098 -0)
(151.495 -4.37522 -0)
(152.776 -3.84701 -0)
(153.843 -3.39861 -0)
(154.736 -3.01574 -0)
(155.486 -2.68683 -0)
(156.119 -2.40258 -0)
(156.655 -2.15544 -0)
(157.11 -1.93926 -0)
(157.498 -1.74905 -0)
(157.828 -1.58073 -0)
(158.111 -1.43095 -0)
(158.353 -1.29694 -0)
(158.561 -1.17645 -0)
(158.739 -1.06759 -0)
(158.891 -0.968775 -0)
(159.022 -0.878693 -0)
(159.134 -0.796249 -0)
(159.23 -0.720523 -0)
(159.312 -0.650734 -0)
(159.382 -0.586206 -0)
(159.442 -0.526368 -0)
(159.492 -0.470746 -0)
(159.534 -0.418912 -0)
(159.569 -0.370507 -0)
(159.599 -0.325214 -0)
(159.618 -0.282768 -0)
(1.55857 -48.0346 -0)
(4.76321 -47.9993 -0)
(8.14599 -47.9228 -0)
(11.7129 -47.7983 -0)
(15.4693 -47.6185 -0)
(19.4192 -47.3757 -0)
(23.5656 -47.0613 -0)
(27.9098 -46.6665 -0)
(32.4513 -46.1821 -0)
(37.1872 -45.5987 -0)
(42.1119 -44.907 -0)
(47.217 -44.0983 -0)
(52.4906 -43.1645 -0)
(57.9171 -42.0989 -0)
(63.4771 -40.8963 -0)
(69.1475 -39.5537 -0)
(74.9009 -38.0711 -0)
(80.7066 -36.4514 -0)
(86.5302 -34.7009 -0)
(92.3349 -32.8301 -0)
(98.0812 -30.8532 -0)
(103.729 -28.7879 -0)
(109.239 -26.6558 -0)
(114.57 -24.4813 -0)
(119.685 -22.2907 -0)
(124.55 -20.1115 -0)
(129.136 -17.9713 -0)
(133.416 -15.8967 -0)
(137.371 -13.9121 -0)
(140.987 -12.0389 -0)
(144.181 -10.3429 -0)
(146.845 -8.89741 -0)
(149.01 -7.69618 -0)
(150.779 -6.69368 -0)
(152.234 -5.85294 -0)
(153.437 -5.14402 -0)
(154.438 -4.54276 -0)
(155.274 -4.02974 -0)
(155.976 -3.58931 -0)
(156.568 -3.20889 -0)
(157.069 -2.87829 -0)
(157.493 -2.58923 -0)
(157.855 -2.33497 -0)
(158.164 -2.11005 -0)
(158.427 -1.90996 -0)
(158.653 -1.73098 -0)
(158.846 -1.57009 -0)
(159.012 -1.42475 -0)
(159.154 -1.29284 -0)
(159.276 -1.17259 -0)
(159.38 -1.06255 -0)
(159.47 -0.961483 -0)
(159.546 -0.868336 -0)
(159.611 -0.782208 -0)
(159.666 -0.702335 -0)
(159.712 -0.628082 -0)
(159.752 -0.55888 -0)
(159.784 -0.494247 -0)
(159.812 -0.433763 -0)
(159.829 -0.377075 -0)
(1.64064 -61.2028 -0)
(5.01379 -61.1552 -0)
(8.57373 -61.0521 -0)
(12.3261 -60.8844 -0)
(16.2755 -60.6425 -0)
(20.4252 -60.3158 -0)
(24.777 -59.8932 -0)
(29.3305 -59.363 -0)
(34.0833 -58.7133 -0)
(39.0299 -57.9319 -0)
(44.1621 -57.0073 -0)
(49.4681 -55.9283 -0)
(54.9323 -54.6854 -0)
(60.5352 -53.2708 -0)
(66.2534 -51.6791 -0)
(72.0595 -49.9082 -0)
(77.9222 -47.9594 -0)
(83.8073 -45.8387 -0)
(89.6775 -43.5564 -0)
(95.4935 -41.1277 -0)
(101.215 -38.5729 -0)
(106.803 -35.9162 -0)
(112.217 -33.1864 -0)
(117.421 -30.4152 -0)
(122.381 -27.6363 -0)
(127.067 -24.8843 -0)
(131.456 -22.1932 -0)
(135.527 -19.5951 -0)
(139.266 -17.1193 -0)
(142.667 -14.7906 -0)
(145.655 -12.689 -0)
(148.137 -10.9028 -0)
(150.145 -9.42171 -0)
(151.782 -8.18796 -0)
(153.125 -7.15486 -0)
(154.233 -6.28485 -0)
(155.153 -5.54773 -0)
(155.921 -4.91936 -0)
(156.565 -4.38032 -0)
(157.107 -3.91503 -0)
(157.565 -3.51089 -0)
(157.954 -3.15769 -0)
(158.284 -2.84716 -0)
(158.566 -2.57255 -0)
(158.806 -2.32833 -0)
(159.012 -2.10993 -0)
(159.188 -1.91365 -0)
(159.339 -1.73638 -0)
(159.469 -1.5755 -0)
(159.58 -1.42889 -0)
(159.675 -1.29472 -0)
(159.756 -1.17151 -0)
(159.825 -1.05796 -0)
(159.884 -0.952983 -0)
(159.934 -0.855633 -0)
(159.976 -0.765137 -0)
(160.012 -0.6808 -0)
(160.042 -0.602034 -0)
(160.067 -0.528327 -0)
(160.082 -0.459247 -0)
(1.74303 -74.3765 -0)
(5.32639 -74.3148 -0)
(9.10719 -74.181 -0)
(13.0905 -73.9634 -0)
(17.28 -73.6496 -0)
(21.6777 -73.2263 -0)
(26.2836 -72.6792 -0)
(31.0953 -71.9937 -0)
(36.1074 -71.1548 -0)
(41.3114 -70.148 -0)
(46.695 -68.9591 -0)
(52.2423 -67.5754 -0)
(57.933 -65.9862 -0)
(63.7426 -64.1834 -0)
(69.6427 -62.1625 -0)
(75.6008 -59.9231 -0)
(81.5813 -57.4699 -0)
(87.5458 -54.8127 -0)
(93.4543 -51.9674 -0)
(99.2657 -48.9554 -0)
(104.939 -45.804 -0)
(110.436 -42.545 -0)
(115.72 -39.2147 -0)
(120.758 -35.8523 -0)
(125.52 -32.4986 -0)
(129.984 -29.1945 -0)
(134.132 -25.9794 -0)
(137.951 -22.8899 -0)
(141.434 -19.9586 -0)
(144.581 -17.2125 -0)
(147.329 -14.7431 -0)
(149.6 -12.6509 -0)
(151.429 -10.9205 -0)
(152.914 -9.48206 -0)
(154.129 -8.27959 -0)
(155.129 -7.26838 -0)
(155.958 -6.41266 -0)
(156.648 -5.68391 -0)
(157.226 -5.05929 -0)
(157.711 -4.52052 -0)
(158.122 -4.05285 -0)
(158.469 -3.64436 -0)
(158.764 -3.28537 -0)
(159.016 -2.96803 -0)
(159.231 -2.68591 -0)
(159.414 -2.4337 -0)
(159.571 -2.20708 -0)
(159.706 -2.00245 -0)
(159.821 -1.81679 -0)
(159.92 -1.64761 -0)
(160.004 -1.49282 -0)
(160.076 -1.35068 -0)
(160.138 -1.2197 -0)
(160.19 -1.09861 -0)
(160.234 -0.986333 -0)
(160.272 -0.881962 -0)
(160.303 -0.7847 -0)
(160.329 -0.693865 -0)
(160.351 -0.608869 -0)
(160.364 -0.52921 -0)
(1.86728 -87.6723 -0)
(5.70568 -87.5938 -0)
(9.75427 -87.4237 -0)
(14.0172 -87.1473 -0)
(18.497 -86.7489 -0)
(23.1937 -86.2119 -0)
(28.1049 -85.5188 -0)
(33.2253 -84.6518 -0)
(38.5458 -83.5928 -0)
(44.0535 -82.3247 -0)
(49.7314 -80.8313 -0)
(55.5579 -79.0987 -0)
(61.5069 -77.1159 -0)
(67.5481 -74.8756 -0)
(73.6468 -72.3754 -0)
(79.7653 -69.6184 -0)
(85.8628 -66.614 -0)
(91.8974 -63.3779 -0)
(97.8261 -59.9329 -0)
(103.607 -56.3083 -0)
(109.2 -52.5393 -0)
(114.57 -48.6659 -0)
(119.682 -44.7323 -0)
(124.509 -40.7852 -0)
(129.03 -36.8717 -0)
(133.228 -33.0381 -0)
(137.093 -29.3279 -0)
(140.621 -25.7809 -0)
(143.812 -22.4314 -0)
(146.671 -19.3071 -0)
(149.151 -16.5087 -0)
(151.187 -14.1456 -0)
(152.818 -12.1965 -0)
(154.137 -10.5798 -0)
(155.212 -9.23081 -0)
(156.094 -8.09813 -0)
(156.823 -7.14083 -0)
(157.429 -6.32645 -0)
(157.935 -5.62907 -0)
(158.36 -5.028 -0)
(158.718 -4.50659 -0)
(159.021 -4.05142 -0)
(159.279 -3.65161 -0)
(159.498 -3.29834 -0)
(159.685 -2.98438 -0)
(159.844 -2.70379 -0)
(159.981 -2.45175 -0)
(160.097 -2.22421 -0)
(160.197 -2.01781 -0)
(160.283 -1.82976 -0)
(160.356 -1.65774 -0)
(160.418 -1.49979 -0)
(160.471 -1.35426 -0)
(160.517 -1.21974 -0)
(160.555 -1.09501 -0)
(160.587 -0.97907 -0)
(160.614 -0.871037 -0)
(160.637 -0.770149 -0)
(160.656 -0.675749 -0)
(160.666 -0.58728 -0)
(2.01567 -101.199 -0)
(6.15856 -101.1 -0)
(10.5266 -100.886 -0)
(15.1226 -100.54 -0)
(19.9473 -100.04 -0)
(24.9981 -99.3676 -0)
(30.2695 -98.501 -0)
(35.752 -97.4187 -0)
(41.4317 -96.1001 -0)
(47.29 -94.5254 -0)
(53.3037 -92.677 -0)
(59.4445 -90.5407 -0)
(65.6792 -88.1063 -0)
(71.9703 -85.3689 -0)
(78.2766 -82.33 -0)
(84.5543 -78.9979 -0)
(90.758 -75.3888 -0)
(96.8422 -71.5263 -0)
(102.763 -67.4418 -0)
(108.478 -63.1735 -0)
(113.949 -58.7659 -0)
(119.145 -54.2676 -0)
(124.039 -49.7305 -0)
(128.61 -45.2082 -0)
(132.843 -40.7532 -0)
(136.732 -36.4158 -0)
(140.274 -32.2424 -0)
(143.474 -28.274 -0)
(146.34 -24.5452 -0)
(148.885 -21.0829 -0)
(151.073 -17.9944 -0)
(152.856 -15.3956 -0)
(154.276 -13.258 -0)
(155.417 -11.4891 -0)
(156.343 -10.016 -0)
(157.101 -8.78097 -0)
(157.724 -7.73857 -0)
(158.242 -6.85278 -0)
(158.673 -6.09495 -0)
(159.034 -5.44231 -0)
(159.338 -4.87656 -0)
(159.595 -4.38297 -0)
(159.813 -3.94962 -0)
(159.998 -3.56688 -0)
(160.155 -3.22687 -0)
(160.29 -2.9231 -0)
(160.405 -2.65031 -0)
(160.503 -2.4041 -0)
(160.587 -2.1808 -0)
(160.659 -1.9774 -0)
(160.72 -1.79136 -0)
(160.773 -1.62056 -0)
(160.817 -1.46322 -0)
(160.855 -1.31778 -0)
(160.887 -1.18294 -0)
(160.914 -1.05762 -0)
(160.936 -0.940847 -0)
(160.955 -0.831803 -0)
(160.97 -0.729774 -0)
(160.978 -0.63416 -0)
(2.19125 -115.061 -0)
(6.69435 -114.938 -0)
(11.4399 -114.672 -0)
(16.4288 -114.24 -0)
(21.6591 -113.618 -0)
(27.1249 -112.782 -0)
(32.816 -111.706 -0)
(38.7176 -110.366 -0)
(44.8094 -108.738 -0)
(51.0657 -106.801 -0)
(57.4554 -104.536 -0)
(63.9418 -101.929 -0)
(70.4835 -98.9736 -0)
(77.0351 -95.669 -0)
(83.5481 -92.0227 -0)
(89.973 -88.0507 -0)
(96.2601 -83.7782 -0)
(102.362 -79.2387 -0)
(108.234 -74.4739 -0)
(113.837 -69.5323 -0)
(119.137 -64.4679 -0)
(124.108 -59.3379 -0)
(128.732 -54.2016 -0)
(132.996 -49.1183 -0)
(136.895 -44.1445 -0)
(140.432 -39.3331 -0)
(143.614 -34.7313 -0)
(146.454 -30.38 -0)
(148.969 -26.3123 -0)
(151.176 -22.5529 -0)
(153.055 -19.2135 -0)
(154.571 -16.4135 -0)
(155.769 -14.117 -0)
(156.726 -12.2211 -0)
(157.499 -10.6452 -0)
(158.127 -9.32615 -0)
(158.642 -8.21431 -0)
(159.068 -7.27057 -0)
(159.422 -6.46394 -0)
(159.718 -5.76983 -0)
(159.967 -5.16854 -0)
(160.176 -4.64425 -0)
(160.354 -4.1842 -0)
(160.504 -3.77804 -0)
(160.632 -3.41737 -0)
(160.741 -3.09524 -0)
(160.835 -2.80604 -0)
(160.914 -2.54509 -0)
(160.982 -2.30848 -0)
(161.04 -2.09298 -0)
(161.089 -1.89591 -0)
(161.131 -1.71502 -0)
(161.167 -1.54839 -0)
(161.197 -1.39439 -0)
(161.222 -1.25163 -0)
(161.244 -1.11895 -0)
(161.262 -0.995331 -0)
(161.277 -0.8799 -0)
(161.289 -0.7719 -0)
(161.294 -0.670693 -0)
(2.39803 -129.366 -0)
(7.32513 -129.213 -0)
(12.5144 -128.882 -0)
(17.9643 -128.345 -0)
(23.6688 -127.574 -0)
(29.6173 -126.538 -0)
(35.7936 -125.21 -0)
(42.1755 -123.559 -0)
(48.7347 -121.56 -0)
(55.4364 -119.19 -0)
(62.2395 -116.432 -0)
(69.0977 -113.276 -0)
(75.9602 -109.718 -0)
(82.7727 -105.765 -0)
(89.48 -101.435 -0)
(96.0272 -96.7521 -0)
(102.362 -91.7543 -0)
(108.436 -86.4867 -0)
(114.208 -81.0027 -0)
(119.642 -75.3617 -0)
(124.713 -69.6274 -0)
(129.402 -63.8651 -0)
(133.701 -58.14 -0)
(137.607 -52.5157 -0)
(141.126 -47.0512 -0)
(144.272 -41.7998 -0)
(147.06 -36.8079 -0)
(149.512 -32.1144 -0)
(151.652 -27.7493 -0)
(153.504 -23.7339 -0)
(155.06 -20.1821 -0)
(156.302 -17.2145 -0)
(157.272 -14.7876 -0)
(158.041 -12.7887 -0)
(158.656 -11.1303 -0)
(159.154 -9.74443 -0)
(159.56 -8.57782 -0)
(159.894 -7.58869 -0)
(160.17 -6.74406 -0)
(160.401 -6.01783 -0)
(160.593 -5.38916 -0)
(160.755 -4.84131 -0)
(160.892 -4.36082 -0)
(161.008 -3.93682 -0)
(161.107 -3.56043 -0)
(161.19 -3.22437 -0)
(161.262 -2.92276 -0)
(161.322 -2.65067 -0)
(161.374 -2.40401 -0)
(161.418 -2.17941 -0)
(161.455 -1.97404 -0)
(161.487 -1.78555 -0)
(161.514 -1.61195 -0)
(161.537 -1.45153 -0)
(161.556 -1.30282 -0)
(161.572 -1.16463 -0)
(161.585 -1.03589 -0)
(161.596 -0.915681 -0)
(161.605 -0.803219 -0)
(161.607 -0.697836 -0)
(2.64109 -144.224 -0)
(8.06635 -144.034 -0)
(13.7763 -143.622 -0)
(19.7653 -142.956 -0)
(26.0223 -142 -0)
(32.5298 -140.72 -0)
(39.2635 -139.082 -0)
(46.1919 -137.053 -0)
(53.2758 -134.606 -0)
(60.469 -131.719 -0)
(67.7189 -128.378 -0)
(74.9677 -124.577 -0)
(82.1542 -120.323 -0)
(89.2158 -115.632 -0)
(96.0906 -110.533 -0)
(102.72 -105.065 -0)
(109.052 -99.2789 -0)
(115.039 -93.2343 -0)
(120.647 -86.9968 -0)
(125.847 -80.6368 -0)
(130.624 -74.227 -0)
(134.969 -67.8392 -0)
(138.885 -61.5433 -0)
(142.383 -55.405 -0)
(145.479 -49.4832 -0)
(148.196 -43.8302 -0)
(150.561 -38.4894 -0)
(152.602 -33.496 -0)
(154.35 -28.8759 -0)
(155.836 -24.6454 -0)
(157.061 -20.9187 -0)
(158.022 -17.8159 -0)
(158.763 -15.2855 -0)
(159.342 -13.2061 -0)
(159.8 -11.4842 -0)
(160.167 -10.0475 -0)
(160.464 -8.8396 -0)
(160.706 -7.81663 -0)
(160.906 -6.9439 -0)
(161.071 -6.1941 -0)
(161.208 -5.54545 -0)
(161.324 -4.98052 -0)
(161.421 -4.4853 -0)
(161.502 -4.04848 -0)
(161.571 -3.66085 -0)
(161.63 -3.31487 -0)
(161.68 -3.00444 -0)
(161.722 -2.72446 -0)
(161.758 -2.4707 -0)
(161.788 -2.23966 -0)
(161.814 -2.02845 -0)
(161.835 -1.83463 -0)
(161.853 -1.65614 -0)
(161.869 -1.49121 -0)
(161.882 -1.33834 -0)
(161.892 -1.1963 -0)
(161.901 -1.06398 -0)
(161.908 -0.940432 -0)
(161.914 -0.824856 -0)
(161.914 -0.716561 -0)
(2.92692 -159.753 -0)
(8.93766 -159.516 -0)
(15.2583 -159.005 -0)
(21.8777 -158.177 -0)
(28.7772 -156.992 -0)
(35.9303 -155.409 -0)
(43.3016 -153.388 -0)
(50.847 -150.897 -0)
(58.514 -147.908 -0)
(66.2422 -144.4 -0)
(73.9652 -140.368 -0)
(81.6129 -135.814 -0)
(89.1132 -130.756 -0)
(96.3957 -125.226 -0)
(103.394 -119.268 -0)
(110.049 -112.939 -0)
(116.311 -106.305 -0)
(122.14 -99.4401 -0)
(127.509 -92.4225 -0)
(132.401 -85.3329 -0)
(136.812 -78.2513 -0)
(140.749 -71.2543 -0)
(144.227 -64.4138 -0)
(147.268 -57.7951 -0)
(149.9 -51.4553 -0)
(152.157 -45.4429 -0)
(154.074 -39.7969 -0)
(155.686 -34.5472 -0)
(157.03 -29.7141 -0)
(158.14 -25.3085 -0)
(159.031 -21.4431 -0)
(159.712 -18.2357 -0)
(160.222 -15.627 -0)
(160.613 -13.4881 -0)
(160.916 -11.7201 -0)
(161.154 -10.2472 -0)
(161.343 -9.01043 -0)
(161.496 -7.96408 -0)
(161.62 -7.07219 -0)
(161.721 -6.30652 -0)
(161.805 -5.64457 -0)
(161.875 -5.06837 -0)
(161.932 -4.5635 -0)
(161.981 -4.11836 -0)
(162.022 -3.72349 -0)
(162.056 -3.37115 -0)
(162.084 -3.05509 -0)
(162.109 -2.7701 -0)
(162.129 -2.51186 -0)
(162.146 -2.27678 -0)
(162.16 -2.0619 -0)
(162.172 -1.86474 -0)
(162.182 -1.6832 -0)
(162.19 -1.51546 -0)
(162.197 -1.36002 -0)
(162.202 -1.21559 -0)
(162.206 -1.08105 -0)
(162.21 -0.955451 -0)
(162.212 -0.837959 -0)
(162.21 -0.727877 -0)
(3.26381 -176.085 -0)
(9.9641 -175.79 -0)
(17.0024 -175.152 -0)
(24.3593 -174.121 -0)
(32.0061 -172.648 -0)
(39.9032 -170.687 -0)
(48.0006 -168.194 -0)
(56.238 -165.135 -0)
(64.5457 -161.485 -0)
(72.8465 -157.232 -0)
(81.0586 -152.38 -0)
(89.0985 -146.946 -0)
(96.8844 -140.965 -0)
(104.34 -134.489 -0)
(111.399 -127.581 -0)
(118.004 -120.317 -0)
(124.113 -112.781 -0)
(129.697 -105.061 -0)
(134.742 -97.2468 -0)
(139.246 -89.4282 -0)
(143.219 -81.6897 -0)
(146.683 -74.1096 -0)
(149.667 -66.759 -0)
(152.206 -59.7005 -0)
(154.339 -52.9866 -0)
(156.109 -46.6603 -0)
(157.558 -40.7544 -0)
(158.729 -35.2922 -0)
(159.662 -30.2878 -0)
(160.395 -25.7457 -0)
(160.952 -21.7758 -0)
(161.353 -18.4925 -0)
(161.637 -15.829 -0)
(161.842 -13.6497 -0)
(161.993 -11.8515 -0)
(162.105 -10.3556 -0)
(162.191 -9.10099 -0)
(162.256 -8.04063 -0)
(162.307 -7.13757 -0)
(162.347 -6.36286 -0)
(162.378 -5.69351 -0)
(162.403 -5.11118 -0)
(162.424 -4.60118 -0)
(162.44 -4.15168 -0)
(162.453 -3.75308 -0)
(162.464 -3.39751 -0)
(162.472 -3.07864 -0)
(162.479 -2.79118 -0)
(162.485 -2.53073 -0)
(162.489 -2.2937 -0)
(162.492 -2.07706 -0)
(162.495 -1.87831 -0)
(162.496 -1.69533 -0)
(162.498 -1.52628 -0)
(162.498 -1.36962 -0)
(162.499 -1.22409 -0)
(162.499 -1.08854 -0)
(162.498 -0.961993 -0)
(162.498 -0.843626 -0)
(162.493 -0.732732 -0)
(3.6624 -193.37 -0)
(11.1778 -193 -0)
(19.0619 -192.2 -0)
(27.2838 -190.911 -0)
(35.7999 -189.074 -0)
(44.5532 -186.636 -0)
(53.4739 -183.554 -0)
(62.4808 -179.795 -0)
(71.4832 -175.34 -0)
(80.3842 -170.192 -0)
(89.0854 -164.37 -0)
(97.4908 -157.913 -0)
(105.511 -150.881 -0)
(113.07 -143.346 -0)
(120.102 -135.398 -0)
(126.562 -127.132 -0)
(132.419 -118.649 -0)
(137.66 -110.052 -0)
(142.288 -101.439 -0)
(146.319 -92.9056 -0)
(149.781 -84.537 -0)
(152.71 -76.4101 -0)
(155.149 -68.5923 -0)
(157.146 -61.1405 -0)
(158.751 -54.1005 -0)
(160.013 -47.5081 -0)
(160.981 -41.3883 -0)
(161.704 -35.7573 -0)
(162.223 -30.6218 -0)
(162.58 -25.98 -0)
(162.806 -21.9377 -0)
(162.934 -18.6048 -0)
(162.996 -15.9078 -0)
(163.021 -13.7056 -0)
(163.025 -11.8914 -0)
(163.015 -10.3842 -0)
(163 -9.12161 -0)
(162.981 -8.05551 -0)
(162.962 -7.14831 -0)
(162.942 -6.37057 -0)
(162.924 -5.699 -0)
(162.907 -5.11504 -0)
(162.891 -4.60382 -0)
(162.877 -4.15341 -0)
(162.863 -3.75413 -0)
(162.852 -3.39807 -0)
(162.841 -3.07881 -0)
(162.831 -2.79106 -0)
(162.823 -2.53041 -0)
(162.815 -2.29322 -0)
(162.807 -2.07647 -0)
(162.801 -1.87764 -0)
(162.795 -1.6946 -0)
(162.79 -1.52552 -0)
(162.785 -1.36885 -0)
(162.78 -1.22332 -0)
(162.776 -1.08777 -0)
(162.773 -0.961248 -0)
(162.769 -0.842909 -0)
(162.762 -0.732049 -0)
(4.13651 -211.78 -0)
(12.6203 -211.312 -0)
(21.5058 -210.304 -0)
(30.7451 -208.683 -0)
(40.2737 -206.381 -0)
(50.0107 -203.341 -0)
(59.86 -199.52 -0)
(69.7137 -194.893 -0)
(79.4559 -189.458 -0)
(88.9681 -183.235 -0)
(98.1358 -176.27 -0)
(106.853 -168.633 -0)
(115.03 -160.411 -0)
(122.592 -151.708 -0)
(129.488 -142.636 -0)
(135.686 -133.312 -0)
(141.177 -123.854 -0)
(145.968 -114.374 -0)
(150.081 -104.976 -0)
(153.555 -95.755 -0)
(156.433 -86.7952 -0)
(158.769 -78.1677 -0)
(160.619 -69.9327 -0)
(162.041 -62.1392 -0)
(163.094 -54.8241 -0)
(163.834 -48.0144 -0)
(164.314 -41.7268 -0)
(164.586 -35.9693 -0)
(164.695 -30.7412 -0)
(164.681 -26.0341 -0)
(164.583 -21.949 -0)
(164.444 -18.5906 -0)
(164.292 -15.8793 -0)
(164.143 -13.6696 -0)
(164.005 -11.852 -0)
(163.879 -10.344 -0)
(163.767 -9.08202 -0)
(163.668 -8.01743 -0)
(163.581 -7.11219 -0)
(163.506 -6.33664 -0)
(163.44 -5.66733 -0)
(163.382 -5.0856 -0)
(163.332 -4.57655 -0)
(163.289 -4.1282 -0)
(163.251 -3.73087 -0)
(163.218 -3.37662 -0)
(163.189 -3.05908 -0)
(163.163 -2.77292 -0)
(163.141 -2.51375 -0)
(163.122 -2.27794 -0)
(163.105 -2.06248 -0)
(163.09 -1.86486 -0)
(163.076 -1.68295 -0)
(163.065 -1.51493 -0)
(163.055 -1.35926 -0)
(163.046 -1.21467 -0)
(163.038 -1.08001 -0)
(163.031 -0.954321 -0)
(163.025 -0.836774 -0)
(163.016 -0.726664 -0)
(4.70436 -231.522 -0)
(14.3464 -230.928 -0)
(24.4241 -229.648 -0)
(34.865 -227.595 -0)
(45.5748 -224.693 -0)
(56.4395 -220.884 -0)
(67.3285 -216.132 -0)
(78.1008 -210.428 -0)
(88.6118 -203.795 -0)
(98.7212 -196.287 -0)
(108.301 -187.986 -0)
(117.243 -178.998 -0)
(125.462 -169.448 -0)
(132.899 -159.471 -0)
(139.523 -149.205 -0)
(145.326 -138.787 -0)
(150.324 -128.343 -0)
(154.55 -117.993 -0)
(158.051 -107.84 -0)
(160.884 -97.9748 -0)
(163.113 -88.4745 -0)
(164.805 -79.4012 -0)
(166.028 -70.8052 -0)
(166.849 -62.725 -0)
(167.334 -55.1873 -0)
(167.543 -48.2096 -0)
(167.534 -41.799 -0)
(167.359 -35.9556 -0)
(167.062 -30.6709 -0)
(166.686 -25.9303 -0)
(166.274 -21.8293 -0)
(165.877 -18.4671 -0)
(165.52 -15.7584 -0)
(165.204 -13.5549 -0)
(164.93 -11.745 -0)
(164.694 -10.2452 -0)
(164.49 -8.99132 -0)
(164.315 -7.93446 -0)
(164.165 -7.03643 -0)
(164.036 -6.26753 -0)
(163.925 -5.60429 -0)
(163.829 -5.0281 -0)
(163.747 -4.52408 -0)
(163.676 -4.08031 -0)
(163.615 -3.68715 -0)
(163.561 -3.3367 -0)
(163.515 -3.02262 -0)
(163.475 -2.73964 -0)
(163.44 -2.48338 -0)
(163.41 -2.25025 -0)
(163.383 -2.03726 -0)
(163.36 -1.84193 -0)
(163.34 -1.66215 -0)
(163.323 -1.49611 -0)
(163.308 -1.34229 -0)
(163.294 -1.19942 -0)
(163.283 -1.06638 -0)
(163.273 -0.942221 -0)
(163.264 -0.826108 -0)
(163.253 -0.717353 -0)
(5.39018 -252.844 -0)
(16.4285 -252.08 -0)
(27.9352 -250.44 -0)
(39.8014 -247.82 -0)
(51.8906 -244.137 -0)
(64.0431 -239.339 -0)
(76.0839 -233.406 -0)
(87.8326 -226.363 -0)
(99.1138 -218.273 -0)
(109.769 -209.237 -0)
(119.665 -199.385 -0)
(128.701 -188.872 -0)
(136.81 -177.863 -0)
(143.961 -166.523 -0)
(150.152 -155.015 -0)
(155.41 -143.486 -0)
(159.78 -132.071 -0)
(163.326 -120.884 -0)
(166.118 -110.025 -0)
(168.235 -99.5724 -0)
(169.756 -89.5929 -0)
(170.761 -80.1359 -0)
(171.329 -71.2393 -0)
(171.532 -62.9297 -0)
(171.44 -55.2225 -0)
(171.117 -48.1247 -0)
(170.622 -41.6343 -0)
(170.006 -35.7431 -0)
(169.315 -30.4352 -0)
(168.587 -25.69 -0)
(167.873 -21.5971 -0)
(167.229 -18.2502 -0)
(166.675 -15.5592 -0)
(166.202 -13.3738 -0)
(165.799 -11.5811 -0)
(165.457 -10.0972 -0)
(165.167 -8.85783 -0)
(164.92 -7.814 -0)
(164.71 -6.92762 -0)
(164.531 -6.16912 -0)
(164.378 -5.51518 -0)
(164.247 -4.9473 -0)
(164.134 -4.45072 -0)
(164.037 -4.01363 -0)
(163.954 -3.62648 -0)
(163.882 -3.28148 -0)
(163.82 -2.97233 -0)
(163.766 -2.69384 -0)
(163.719 -2.44168 -0)
(163.679 -2.21231 -0)
(163.643 -2.00278 -0)
(163.613 -1.81063 -0)
(163.586 -1.6338 -0)
(163.563 -1.4705 -0)
(163.543 -1.31923 -0)
(163.526 -1.17874 -0)
(163.511 -1.04793 -0)
(163.499 -0.925861 -0)
(163.487 -0.811713 -0)
(163.474 -0.70481 -0)
(6.22699 -276.053 -0)
(18.9648 -275.061 -0)
(32.1982 -272.937 -0)
(45.7636 -269.56 -0)
(59.464 -264.848 -0)
(73.078 -258.766 -0)
(86.3746 -251.334 -0)
(99.1289 -242.627 -0)
(111.138 -232.77 -0)
(122.235 -221.932 -0)
(132.297 -210.306 -0)
(141.245 -198.097 -0)
(149.051 -185.513 -0)
(155.722 -172.748 -0)
(161.3 -159.976 -0)
(165.852 -147.352 -0)
(169.458 -135.003 -0)
(172.211 -123.036 -0)
(174.206 -111.535 -0)
(175.539 -100.565 -0)
(176.304 -90.1764 -0)
(176.591 -80.4031 -0)
(176.483 -71.269 -0)
(176.058 -62.7877 -0)
(175.388 -54.963 -0)
(174.537 -47.7914 -0)
(173.564 -41.2618 -0)
(172.519 -35.3581 -0)
(171.445 -30.0572 -0)
(170.379 -25.3333 -0)
(169.376 -21.2699 -0)
(168.498 -17.955 -0)
(167.757 -15.2946 -0)
(167.134 -13.1374 -0)
(166.611 -11.37 -0)
(166.17 -9.90861 -0)
(165.799 -8.68909 -0)
(165.485 -7.66271 -0)
(165.219 -6.7917 -0)
(164.992 -6.04674 -0)
(164.8 -5.40475 -0)
(164.635 -4.84746 -0)
(164.494 -4.3603 -0)
(164.373 -3.93163 -0)
(164.269 -3.55202 -0)
(164.18 -3.2138 -0)
(164.103 -2.91079 -0)
(164.036 -2.63786 -0)
(163.978 -2.39077 -0)
(163.928 -2.16604 -0)
(163.885 -1.96076 -0)
(163.847 -1.77254 -0)
(163.815 -1.59932 -0)
(163.787 -1.43938 -0)
(163.762 -1.29123 -0)
(163.741 -1.15366 -0)
(163.723 -1.02557 -0)
(163.708 -0.906053 -0)
(163.695 -0.794302 -0)
(163.68 -0.689655 -0)
(7.26087 -301.543 -0)
(22.092 -300.237 -0)
(37.4311 -297.449 -0)
(53.0329 -293.047 -0)
(68.6132 -286.963 -0)
(83.8682 -279.205 -0)
(98.4998 -269.861 -0)
(112.24 -259.09 -0)
(124.87 -247.11 -0)
(136.235 -234.173 -0)
(146.243 -220.547 -0)
(154.866 -206.492 -0)
(162.131 -192.25 -0)
(168.101 -178.03 -0)
(172.871 -164.01 -0)
(176.551 -150.336 -0)
(179.26 -137.121 -0)
(181.116 -124.45 -0)
(182.236 -112.388 -0)
(182.731 -100.981 -0)
(182.704 -90.2584 -0)
(182.25 -80.2391 -0)
(181.456 -70.9313 -0)
(180.402 -62.3352 -0)
(179.159 -54.4428 -0)
(177.79 -47.241 -0)
(176.351 -40.7095 -0)
(174.891 -34.8253 -0)
(173.45 -29.5587 -0)
(172.061 -24.8789 -0)
(170.783 -20.8634 -0)
(169.683 -17.5949 -0)
(168.766 -14.9761 -0)
(168.003 -12.8557 -0)
(167.366 -11.1205 -0)
(166.833 -9.68708 -0)
(166.385 -8.49183 -0)
(166.008 -7.48656 -0)
(165.69 -6.63395 -0)
(165.42 -5.90507 -0)
(165.19 -5.27721 -0)
(164.995 -4.73236 -0)
(164.828 -4.25624 -0)
(164.684 -3.83737 -0)
(164.561 -3.46654 -0)
(164.456 -3.13619 -0)
(164.364 -2.84028 -0)
(164.286 -2.57378 -0)
(164.218 -2.33254 -0)
(164.159 -2.11314 -0)
(164.108 -1.91276 -0)
(164.064 -1.72904 -0)
(164.026 -1.55998 -0)
(163.993 -1.40389 -0)
(163.965 -1.25932 -0)
(163.94 -1.12508 -0)
(163.919 -1.00011 -0)
(163.901 -0.88351 -0)
(163.886 -0.7745 -0)
(163.869 -0.672432 -0)
(8.55742 -329.821 -0)
(26.0026 -328.072 -0)
(43.9373 -324.357 -0)
(61.991 -318.543 -0)
(79.7545 -310.607 -0)
(96.8181 -300.645 -0)
(112.811 -288.862 -0)
(127.436 -275.548 -0)
(140.486 -261.043 -0)
(151.851 -245.706 -0)
(161.509 -229.877 -0)
(169.511 -213.862 -0)
(175.958 -197.922 -0)
(180.986 -182.265 -0)
(184.747 -167.055 -0)
(187.395 -152.411 -0)
(189.083 -138.42 -0)
(189.953 -125.141 -0)
(190.136 -112.612 -0)
(189.752 -100.854 -0)
(188.909 -89.878 -0)
(187.703 -79.6839 -0)
(186.223 -70.265 -0)
(184.545 -61.6086 -0)
(182.739 -53.6957 -0)
(180.866 -46.5037 -0)
(178.977 -40.0044 -0)
(177.119 -34.1683 -0)
(175.327 -28.9597 -0)
(173.632 -24.3439 -0)
(172.095 -20.3923 -0)
(170.785 -17.1823 -0)
(169.704 -14.6144 -0)
(168.809 -12.5379 -0)
(168.066 -10.8404 -0)
(167.446 -9.4394 -0)
(166.928 -8.27203 -0)
(166.492 -7.29081 -0)
(166.125 -6.45904 -0)
(165.815 -5.74828 -0)
(165.551 -5.13627 -0)
(165.327 -4.60535 -0)
(165.135 -4.14152 -0)
(164.971 -3.73357 -0)
(164.831 -3.37247 -0)
(164.71 -3.05085 -0)
(164.606 -2.7628 -0)
(164.516 -2.5034 -0)
(164.439 -2.26862 -0)
(164.372 -2.05511 -0)
(164.314 -1.86013 -0)
(164.264 -1.68136 -0)
(164.221 -1.51688 -0)
(164.184 -1.36502 -0)
(164.151 -1.22438 -0)
(164.124 -1.09381 -0)
(164.1 -0.972258 -0)
(164.08 -0.858861 -0)
(164.062 -0.752856 -0)
(164.044 -0.653618 -0)
(10.2131 -361.56 -0)
(30.9771 -359.169 -0)
(52.1488 -354.126 -0)
(73.1637 -346.33 -0)
(93.4366 -335.865 -0)
(112.43 -322.991 -0)
(129.713 -308.109 -0)
(144.996 -291.694 -0)
(158.136 -274.243 -0)
(169.123 -256.222 -0)
(178.049 -238.033 -0)
(185.075 -220.005 -0)
(190.4 -202.39 -0)
(194.236 -185.369 -0)
(196.792 -169.068 -0)
(198.262 -153.568 -0)
(198.824 -138.918 -0)
(198.636 -125.14 -0)
(197.837 -112.245 -0)
(196.548 -100.228 -0)
(194.878 -89.079 -0)
(192.921 -78.78 -0)
(190.761 -69.31 -0)
(188.472 -60.6444 -0)
(186.119 -52.7542 -0)
(183.759 -45.6084 -0)
(181.439 -39.1715 -0)
(179.202 -33.4086 -0)
(177.078 -28.2787 -0)
(175.094 -23.7439 -0)
(173.312 -19.8695 -0)
(171.806 -16.7282 -0)
(170.571 -14.2187 -0)
(169.553 -12.192 -0)
(168.712 -10.5366 -0)
(168.012 -9.17159 -0)
(167.428 -8.03494 -0)
(166.939 -7.08009 -0)
(166.527 -6.27105 -0)
(166.179 -5.58001 -0)
(165.884 -4.98518 -0)
(165.633 -4.46932 -0)
(165.418 -4.01876 -0)
(165.235 -3.62257 -0)
(165.078 -3.27194 -0)
(164.944 -2.9597 -0)
(164.828 -2.68008 -0)
(164.728 -2.42831 -0)
(164.642 -2.20044 -0)
(164.567 -1.99324 -0)
(164.503 -1.80403 -0)
(164.448 -1.63057 -0)
(164.4 -1.47097 -0)
(164.359 -1.32363 -0)
(164.323 -1.18719 -0)
(164.292 -1.06053 -0)
(164.266 -0.94263 -0)
(164.244 -0.832648 -0)
(164.224 -0.729848 -0)
(164.205 -0.633626 -0)
(12.3744 -397.682 -0)
(37.4359 -394.329 -0)
(62.6951 -387.33 -0)
(87.2847 -376.694 -0)
(110.38 -362.735 -0)
(131.314 -346.014 -0)
(149.646 -327.228 -0)
(165.175 -307.1 -0)
(177.91 -286.295 -0)
(188.014 -265.367 -0)
(195.744 -244.745 -0)
(201.4 -224.733 -0)
(205.285 -205.538 -0)
(207.686 -187.283 -0)
(208.859 -170.035 -0)
(209.028 -153.822 -0)
(208.382 -138.645 -0)
(207.086 -124.491 -0)
(205.277 -111.336 -0)
(203.074 -99.152 -0)
(200.578 -87.9082 -0)
(197.879 -77.5709 -0)
(195.055 -68.1059 -0)
(192.174 -59.4782 -0)
(189.294 -51.6495 -0)
(186.468 -44.5823 -0)
(183.738 -38.2342 -0)
(181.141 -32.5663 -0)
(178.704 -27.5327 -0)
(176.448 -23.0928 -0)
(174.438 -19.3068 -0)
(172.75 -16.2423 -0)
(171.371 -13.7972 -0)
(170.24 -11.8248 -0)
(169.307 -10.2152 -0)
(168.533 -8.88888 -0)
(167.888 -7.78514 -0)
(167.349 -6.85841 -0)
(166.895 -6.07356 -0)
(166.513 -5.40341 -0)
(166.189 -4.82677 -0)
(165.913 -4.3268 -0)
(165.678 -3.89024 -0)
(165.478 -3.50642 -0)
(165.306 -3.1668 -0)
(165.158 -2.86441 -0)
(165.031 -2.59364 -0)
(164.922 -2.34987 -0)
(164.828 -2.12925 -0)
(164.747 -1.92866 -0)
(164.677 -1.74549 -0)
(164.616 -1.57757 -0)
(164.564 -1.42309 -0)
(164.519 -1.28048 -0)
(164.48 -1.14843 -0)
(164.447 -1.02585 -0)
(164.418 -0.911758 -0)
(164.394 -0.805342 -0)
(164.373 -0.705887 -0)
(164.352 -0.612812 -0)
(15.2741 -439.494 -0)
(46.0338 -434.64 -0)
(76.5195 -424.664 -0)
(105.391 -409.872 -0)
(131.528 -391.052 -0)
(154.19 -369.271 -0)
(173.056 -345.651 -0)
(188.166 -321.195 -0)
(199.805 -296.706 -0)
(208.396 -272.764 -0)
(214.401 -249.75 -0)