/*--------------------------------*- C++ -*----------------------------------*\
| =========                 |                                                 |
| \\      /  F ield         | OpenFOAM: The Open Source CFD Toolbox           |
|  \\    /   O peration     | Version:  2406                                  |
|   \\  /    A nd           | Website:  www.openfoam.com                      |
|    \\/     M anipulation  |                                                 |
\*---------------------------------------------------------------------------*/
FoamFile
{
    version     2.0;
    format      ascii;
    arch        "LSB;label=32;scalar=64";
    class       volScalarField;
    location    "2e-07";
    object      EN;
}
// * * * * * * * * * * * * * * * * * * * * * * * * * * * * * * * * * * * * * //

dimensions      [1 4 -3 0 0 -1 0];

internalField   nonuniform List<scalar> 
5880
(
0.298125
0.342459
0.422514
0.52719
0.649145
0.784423
0.930947
1.08759
1.2537
1.42881
1.61258
1.80464
2.00458
2.21194
2.42609
2.64631
2.87172
3.10129
3.33383
3.56798
3.80227
4.03508
4.26474
4.48949
4.7076
4.91737
5.11724
5.30575
5.48169
5.64409
5.78872
5.91024
6.00957
6.09119
6.1586
6.21455
6.26121
6.3003
6.33318
6.36095
6.38447
6.40446
6.4215
6.43605
6.44849
6.45915
6.46829
6.47614
6.48287
6.48864
6.49359
6.49783
6.50145
6.50453
6.50716
6.50938
6.51126
6.51283
6.51414
6.515
0.867645
0.883861
0.917847
0.970479
1.04175
1.13095
1.23702
1.35871
1.49482
1.64422
1.80589
1.97886
2.16222
2.35505
2.55639
2.7652
2.98037
3.20065
3.42469
3.65101
3.87799
4.10396
4.32718
4.54583
4.75816
4.96247
5.15718
5.34085
5.51228
5.67049
5.81139
5.92976
6.02651
6.106
6.17164
6.22611
6.27153
6.30959
6.34159
6.36862
6.39152
6.41098
6.42755
6.44171
6.45382
6.46419
6.47309
6.48072
6.48726
6.49288
6.49769
6.50182
6.50534
6.50834
6.51089
6.51305
6.51487
6.51639
6.51766
6.51847
1.42151
1.43145
1.45264
1.48638
1.53374
1.5955
1.67211
1.7637
1.87013
1.99099
2.12571
2.27353
2.43361
2.60497
2.78652
2.97708
3.17537
3.37997
3.58937
3.80194
4.01597
4.22968
4.44124
4.64881
4.85061
5.04492
5.23018
5.40498
5.56812
5.71867
5.85274
5.96536
6.05738
6.13297
6.19537
6.24715
6.29033
6.32649
6.3569
6.38258
6.40434
6.42282
6.43857
6.45201
6.46351
6.47336
6.48181
6.48905
6.49526
6.50059
6.50516
6.50907
6.5124
6.51525
6.51767
6.51971
6.52143
6.52288
6.52408
6.52485
1.96459
1.97175
1.98708
2.0117
2.04668
2.093
2.15147
2.22276
2.30729
2.40525
2.51658
2.64101
2.77802
2.9269
3.08671
3.25637
3.43461
3.62
3.811
4.00594
4.20304
4.4005
4.59647
4.7891
4.9766
5.1573
5.32967
5.49233
5.64415
5.78424
5.90897
6.01373
6.09931
6.16958
6.22759
6.27571
6.31582
6.34941
6.37766
6.40151
6.42171
6.43887
6.45348
6.46596
6.47664
6.48578
6.49361
6.50033
6.50609
6.51104
6.51527
6.51889
6.52198
6.52462
6.52686
6.52875
6.53034
6.53168
6.53279
6.53348
2.50274
2.50828
2.52017
2.53932
2.56666
2.60312
2.64953
2.70667
2.77516
2.85544
2.94778
3.0522
3.16851
3.29626
3.43477
3.58315
3.74027
3.90482
4.07534
4.25022
4.42774
4.60613
4.78359
4.95834
5.12865
5.29291
5.44967
5.59764
5.73575
5.86316
5.97662
6.07189
6.14968
6.21355
6.26625
6.30996
6.34639
6.3769
6.40254
6.42419
6.44252
6.45809
6.47136
6.48268
6.49236
6.50065
6.50775
6.51384
6.51907
6.52354
6.52738
6.53066
6.53346
6.53584
6.53786
6.53957
6.54101
6.54221
6.54321
6.54382
3.04119
3.04562
3.05513
3.07045
3.0924
3.12174
3.15928
3.20572
3.26172
3.32781
3.40436
3.49158
3.58944
3.69773
3.81596
3.94345
4.07925
4.22225
4.37113
4.52441
4.68052
4.83782
4.99463
5.14928
5.30019
5.44585
5.58493
5.71625
5.83882
5.95189
6.05259
6.13714
6.20617
6.26282
6.30956
6.34831
6.38061
6.40764
6.43037
6.44955
6.46579
6.47959
6.49134
6.50136
6.50993
6.51727
6.52355
6.52894
6.53356
6.53752
6.54091
6.5438
6.54627
6.54838
6.55016
6.55167
6.55293
6.55399
6.55487
6.55537
3.58467
3.58824
3.59587
3.60818
3.62583
3.64947
3.67977
3.71738
3.76288
3.81679
3.8795
3.95128
4.03222
4.1222
4.22094
4.32789
4.44233
4.56331
4.68973
4.82031
4.95367
5.08836
5.22289
5.35578
5.4856
5.61104
5.73088
5.84409
5.94979
6.04732
6.13421
6.20718
6.26675
6.31562
6.35594
6.38937
6.41723
6.44054
6.46014
6.47667
6.49067
6.50256
6.51269
6.52132
6.52871
6.53502
6.54044
6.54507
6.54904
6.55245
6.55536
6.55784
6.55996
6.56177
6.56329
6.56458
6.56566
6.56657
6.56731
6.56772
4.13761
4.14042
4.14641
4.15608
4.16993
4.1885
4.21234
4.24197
4.2779
4.32058
4.37036
4.42752
4.49219
4.56435
4.64381
4.73021
4.82298
4.9214
5.02458
5.13148
5.24096
5.35182
5.4628
5.57263
5.68012
5.78413
5.88362
5.97771
6.06563
6.14681
6.2192
6.28004
6.3297
6.37046
6.40409
6.43197
6.4552
6.47464
6.49098
6.50477
6.51644
6.52636
6.53479
6.54199
6.54814
6.5534
6.55791
6.56177
6.56507
6.5679
6.57032
6.57238
6.57413
6.57563
6.57689
6.57795
6.57884
6.57958
6.58019
6.58049
4.70431
4.70639
4.71081
4.71791
4.72809
4.74174
4.75927
4.7811
4.80761
4.83917
4.8761
4.91862
4.96691
5.02099
5.08079
5.14608
5.2165
5.29155
5.37057
5.4528
5.53736
5.62333
5.70971
5.79551
5.87974
5.96148
6.03988
6.11419
6.18378
6.24814
6.30565
6.35406
6.39362
6.42609
6.45289
6.47512
6.49365
6.50916
6.5222
6.5332
6.54251
6.55042
6.55715
6.56289
6.56779
6.57199
6.57557
6.57864
6.58127
6.58352
6.58543
6.58707
6.58846
6.58963
6.59063
6.59146
6.59216
6.59274
6.59321
6.59341
5.28911
5.29044
5.2932
5.29762
5.30394
5.31242
5.32333
5.33695
5.35357
5.37344
5.39684
5.42397
5.45501
5.49008
5.5292
5.57233
5.6193
5.66985
5.7236
5.78008
5.83871
5.89884
5.95978
6.02079
6.08112
6.14006
6.19693
6.25113
6.30213
6.34949
6.39201
6.42792
6.45732
6.4815
6.50147
6.51806
6.53189
6.54348
6.55322
6.56144
6.56841
6.57432
6.57935
6.58364
6.5873
6.59043
6.59311
6.5954
6.59735
6.59902
6.60044
6.60165
6.60267
6.60354
6.60426
6.60487
6.60538
6.60579
6.60613
6.60622
5.89654
5.89702
5.89792
5.89933
5.90134
5.90404
5.90757
5.91206
5.9177
5.92466
5.93317
5.94344
5.9557
5.97016
5.98701
6.00641
6.02842
6.05306
6.08025
6.10982
6.14151
6.17496
6.20977
6.24545
6.28148
6.31735
6.35254
6.38656
6.41897
6.4494
6.47701
6.50054
6.5199
6.53588
6.54912
6.56015
6.56936
6.57709
6.5836
6.5891
6.59375
6.59771
6.60108
6.60394
6.60639
6.60848
6.61026
6.61178
6.61308
6.61418
6.61511
6.6159
6.61657
6.61713
6.6176
6.61799
6.6183
6.61856
6.61877
6.61875
6.53145
6.53092
6.52963
6.5275
6.52442
6.52035
6.51525
6.50914
6.50209
6.49425
6.48581
6.47705
6.46831
6.45996
6.4524
6.44603
6.44123
6.4383
6.4375
6.43897
6.44276
6.44881
6.45696
6.46698
6.47856
6.49133
6.50491
6.51891
6.53296
6.54671
6.55969
6.57109
6.58063
6.58862
6.59531
6.60092
6.60564
6.60963
6.613
6.61585
6.61827
6.62033
6.62208
6.62357
6.62484
6.62592
6.62684
6.62762
6.62828
6.62883
6.6293
6.62969
6.63001
6.63027
6.63049
6.63066
6.63079
6.6309
6.63098
6.63086
7.19923
7.19746
7.19349
7.18701
7.17774
7.16543
7.1499
7.13107
7.10893
7.08363
7.05544
7.02476
6.99213
6.95816
6.92354
6.88901
6.85525
6.82294
6.79266
6.76485
6.73988
6.71794
6.69911
6.68335
6.67051
6.66036
6.65262
6.64696
6.64304
6.64054
6.63931
6.63894
6.63899
6.63926
6.63963
6.64003
6.64043
6.64081
6.64116
6.64147
6.64175
6.64199
6.64219
6.64237
6.64251
6.64262
6.64271
6.64278
6.64283
6.64286
6.64287
6.64288
6.64287
6.64285
6.64282
6.64279
6.64275
6.64271
6.64266
6.64244
7.90597
7.90264
7.89527
7.88331
7.86625
7.84366
7.81522
7.78076
7.74029
7.69406
7.64249
7.58624
7.52615
7.4632
7.39846
7.33304
7.26803
7.20445
7.14321
7.08506
7.03061
6.98028
6.93433
6.89287
6.85587
6.82319
6.79459
6.76979
6.74846
6.73025
6.71533
6.70366
6.6946
6.68748
6.6818
6.67723
6.67351
6.67045
6.66793
6.66582
6.66405
6.66256
6.66129
6.66021
6.65928
6.65848
6.65778
6.65717
6.65664
6.65617
6.65576
6.65539
6.65507
6.65478
6.65452
6.6543
6.65409
6.65391
6.65375
6.65344
8.65876
8.6534
8.64162
8.6226
8.59555
8.55986
8.51512
8.46116
8.39813
8.32648
8.24699
8.16072
8.06896
7.97317
7.8749
7.77571
7.67707
7.58038
7.48683
7.39744
7.313
7.23409
7.16111
7.09424
7.03352
6.97885
6.93002
6.88673
6.84865
6.8154
6.78738
6.76493
6.74721
6.73306
6.72165
6.71236
6.70473
6.69843
6.69318
6.68879
6.68509
6.68196
6.6793
6.67703
6.67509
6.67342
6.67198
6.67074
6.66966
6.66872
6.66791
6.66719
6.66657
6.66603
6.66556
6.66514
6.66478
6.66447
6.66419
6.6638
9.46609
9.45804
9.44045
9.41212
9.37202
9.31938
9.25378
9.17521
9.08413
8.98145
8.8685
8.74693
8.61868
8.4858
8.35038
8.21445
8.07989
7.94839
7.8214
7.7001
7.58541
7.47798
7.37826
7.28648
7.20266
7.1267
7.05837
6.99737
6.94328
6.8957
6.85525
6.82259
6.79668
6.7759
6.75907
6.74534
6.73403
6.72467
6.71686
6.71032
6.70481
6.70015
6.69618
6.6928
6.68991
6.68743
6.68529
6.68345
6.68186
6.68048
6.67929
6.67825
6.67735
6.67657
6.67589
6.67531
6.6748
6.67436
6.67398
6.6735
10.3381
10.3264
10.3009
10.2602
10.2027
10.1279
10.0353
9.92541
9.79933
9.6587
9.50568
9.34278
9.17271
8.99822
8.82197
8.64646
8.4739
8.30619
8.14492
7.99135
7.84642
7.71079
7.58486
7.46883
7.36268
7.26628
7.17931
7.10142
7.03215
6.97102
6.91884
6.87656
6.84294
6.81593
6.79403
6.77613
6.76138
6.74916
6.73896
6.73041
6.7232
6.7171
6.71192
6.70751
6.70373
6.70049
6.6977
6.6953
6.69323
6.69144
6.6899
6.68856
6.6874
6.68639
6.68553
6.68478
6.68413
6.68358
6.6831
6.68255
11.2873
11.2706
11.2344
11.1767
11.0959
10.9915
10.8638
10.7139
10.5441
10.3571
10.1564
9.94541
9.72784
9.50716
9.28658
9.06892
8.85662
8.65167
8.45566
8.2698
8.09495
7.93167
7.78027
7.64084
7.51327
7.39734
7.29266
7.1988
7.1152
7.04131
6.97812
6.92682
6.886
6.85317
6.82654
6.80475
6.7868
6.77191
6.75949
6.74906
6.74028
6.73285
6.72653
6.72115
6.71655
6.71261
6.70922
6.7063
6.70379
6.70162
6.69974
6.69812
6.69672
6.69551
6.69447
6.69357
6.6928
6.69213
6.69156
6.69094
12.33
12.3062
12.255
12.1737
12.0611
11.9171
11.7432
11.5421
11.3178
11.0746
10.8174
10.5511
10.2803
10.009
9.74094
9.47903
9.22573
8.98297
8.75217
8.53436
8.33021
8.14008
7.96412
7.80227
7.6543
7.51985
7.39843
7.28953
7.19248
7.10664
7.03316
6.97346
6.92592
6.88768
6.85665
6.83125
6.81033
6.79296
6.77848
6.76632
6.75608
6.74741
6.74005
6.73377
6.72841
6.72381
6.71987
6.71647
6.71355
6.71102
6.70885
6.70697
6.70534
6.70394
6.70273
6.70169
6.7008
6.70004
6.69938
6.69869
13.4869
13.4529
13.3801
13.2657
13.1088
12.9113
12.6766
12.4101
12.1181
11.8073
11.4843
11.1553
10.8256
10.4999
10.1817
9.87403
9.57909
9.29848
9.03328
8.78421
8.55165
8.33568
8.13624
7.95308
7.78578
7.63387
7.49673
7.37373
7.26411
7.16714
7.08408
7.01657
6.9628
6.91954
6.88444
6.85571
6.83203
6.81238
6.79599
6.78223
6.77064
6.76083
6.7525
6.7454
6.73934
6.73414
6.72968
6.72584
6.72254
6.71969
6.71724
6.71512
6.71329
6.71171
6.71035
6.70918
6.70818
6.70732
6.70659
6.70583
14.7857
14.7366
14.6321
14.4697
14.2508
13.9802
13.6655
13.3157
12.9407
12.5497
12.1512
11.7523
11.3589
10.9755
10.6055
10.2514
9.91482
9.59685
9.2981
9.01881
8.75897
8.51837
8.29665
8.09335
7.90787
7.73959
7.58774
7.45159
7.33028
7.22297
7.13104
7.05629
6.99677
6.94887
6.91001
6.8782
6.85199
6.83024
6.81208
6.79686
6.78403
6.77317
6.76395
6.75609
6.74938
6.74363
6.7387
6.73446
6.73081
6.72766
6.72495
6.7226
6.72059
6.71884
6.71735
6.71606
6.71496
6.71401
6.7132
6.7124
16.2642
16.1918
16.0393
15.8064
15.4992
15.1286
14.7088
14.2542
13.7787
13.2944
12.8109
12.3358
11.8749
11.4318
11.0093
10.6089
10.2314
9.87712
9.54604
9.23786
8.95211
8.68821
8.4455
8.22331
8.02082
7.83726
7.67172
7.52337
7.39121
7.27434
7.17421
7.09279
7.02796
6.9758
6.93348
6.89884
6.87029
6.84661
6.82684
6.81027
6.7963
6.78448
6.77444
6.76589
6.75858
6.75233
6.74696
6.74235
6.73838
6.73496
6.73201
6.72947
6.72727
6.72538
6.72376
6.72236
6.72116
6.72014
6.71926
6.7184
17.9764
17.8665
17.6389
17.2997
16.8653
16.3581
15.8014
15.2169
14.6224
14.0318
13.4551
12.8992
12.3683
11.865
11.3904
10.9447
10.5277
10.1387
9.77685
9.44135
9.13121
8.84545
8.58312
8.34329
8.12497
7.92722
7.74899
7.58934
7.44717
7.32148
7.21379
7.12624
7.05654
7.00046
6.95496
6.91773
6.88705
6.86159
6.84035
6.82253
6.80752
6.79482
6.78403
6.77484
6.767
6.76028
6.75452
6.74956
6.7453
6.74163
6.73847
6.73574
6.73339
6.73136
6.72962
6.72812
6.72684
6.72574
6.7248
6.7239
20.0027
19.8293
19.4792
18.9761
18.3577
17.6646
16.9328
16.1908
15.459
14.751
14.0751
13.4356
12.8345
12.2718
11.7466
11.2576
10.803
10.3813
9.99061
9.62955
9.29663
8.99051
8.70993
8.45374
8.22074
8.00987
7.81991
7.64985
7.49846
7.36465
7.25002
7.15683
7.08266
7.02299
6.97459
6.93498
6.90234
6.87527
6.85268
6.83373
6.81776
6.80426
6.79279
6.78302
6.77468
6.76754
6.76141
6.75615
6.75162
6.74772
6.74436
6.74147
6.73897
6.73682
6.73497
6.73338
6.73202
6.73086
6.72986
6.72891
22.4685
22.1797
21.6213
20.8609
19.9766
19.0349
18.0846
17.1576
16.2727
15.4395
14.6616
13.9389
13.2692
12.6496
12.0766
11.5469
11.0573
10.6051
10.1876
9.80287
9.44887
9.12391
8.82645
8.55514
8.30859
8.08562
7.88487
7.70522
7.54536
7.40411
7.28312
7.18476
7.10651
7.04355
6.9925
6.95071
6.91629
6.88774
6.86391
6.84393
6.8271
6.81286
6.80077
6.79047
6.78168
6.77415
6.76769
6.76215
6.75738
6.75327
6.74974
6.74669
6.74406
6.74179
6.73985
6.73817
6.73674
6.73551
6.73446
6.73347
25.5838
25.0654
24.1363
22.969
21.7062
20.4416
19.2286
18.0933
17.0452
16.0843
15.206
14.4033
13.6691
12.9966
12.3794
11.8123
11.2906
10.8104
10.3684
9.96187
9.58848
9.24618
8.9332
8.64798
8.38898
8.15488
7.94422
7.75578
7.58816
7.44009
7.31329
7.21022
7.12823
7.06227
7.0088
6.96504
6.92899
6.89908
6.87414
6.85322
6.83559
6.82068
6.80802
6.79725
6.78804
6.78017
6.77341
6.76761
6.76262
6.75832
6.75462
6.75143
6.74869
6.74632
6.74428
6.74253
6.74103
6.73975
6.73865
6.73762
29.7318
28.7048
27.0936
25.2887
23.505
21.8398
20.3273
18.9704
17.7578
16.6735
15.7009
14.8248
14.0321
13.3118
12.655
12.0542
11.5035
10.9979
10.5336
10.1073
9.71615
9.358
9.03079
8.73282
8.4624
8.21811
7.99837
7.80189
7.62717
7.47287
7.34076
7.23338
7.14799
7.07931
7.02363
6.97806
6.94053
6.9094
6.88343
6.86166
6.84331
6.82779
6.81462
6.8034
6.79383
6.78563
6.7786
6.77257
6.76738
6.76291
6.75906
6.75575
6.75289
6.75043
6.74831
6.74649
6.74493
6.7436
6.74245
6.74139
35.6865
33.3933
30.5171
27.7523
25.2929
23.164
21.3347
19.7592
18.3927
17.197
16.1411
15.2008
14.3572
13.5953
12.9037
12.2732
11.6967
11.1685
10.6841
10.2398
9.83261
9.46001
9.11982
8.8102
8.52934
8.27573
8.04769
7.84386
7.66266
7.50269
7.36574
7.25444
7.16595
7.09478
7.03709
6.98989
6.95101
6.91877
6.89187
6.86932
6.85032
6.83425
6.82061
6.80899
6.79908
6.79059
6.78332
6.77707
6.7717
6.76707
6.76309
6.75966
6.75671
6.75416
6.75197
6.75009
6.74847
6.74709
6.7459
6.74481
45.2067
39.4108
34.2961
30.1987
26.9412
24.3296
22.201
20.4326
18.9359
17.648
16.5238
15.5308
14.6448
13.848
13.1266
12.4705
11.8714
11.3232
10.8208
10.3603
9.93861
9.5529
9.20089
8.88066
8.59028
8.32817
8.09257
7.88203
7.69493
7.52978
7.38842
7.27356
7.18225
7.10882
7.04931
7.00061
6.96052
6.92726
6.89952
6.87627
6.85667
6.8401
6.82604
6.81406
6.80384
6.79509
6.78759
6.78115
6.77561
6.77085
6.76675
6.76321
6.76016
6.75754
6.75528
6.75335
6.75168
6.75026
6.74903
6.74791
62.7643
46.6428
38.058
32.3308
28.2707
25.2431
22.8814
20.9705
19.3792
18.024
16.8489
15.8155
14.8963
14.0712
13.3252
12.6473
12.0287
11.4629
10.9446
10.4697
10.0349
9.63732
9.2746
8.94472
8.64567
8.37582
8.13333
7.91669
7.72422
7.55436
7.409
7.29089
7.19702
7.12155
7.06038
7.01034
6.96914
6.93496
6.90646
6.88256
6.86243
6.8454
6.83095
6.81865
6.80815
6.79916
6.79146
6.78484
6.77916
6.77427
6.77005
6.76642
6.7633
6.7606
6.75829
6.7563
6.75459
6.75313
6.75187
6.75073
91.6623
55.1823
40.9637
33.6629
29.0828
25.8358
23.3574
21.3725
19.7287
18.3328
17.1244
16.0626
15.1185
14.271
13.5049
12.8085
12.1729
11.5915
11.0589
10.5709
10.1241
9.71559
9.34296
9.00413
8.69705
8.42001
8.17112
7.94882
7.75136
7.57713
7.42806
7.30694
7.2107
7.13332
7.07063
7.01933
6.97711
6.94208
6.91287
6.88838
6.86775
6.85031
6.8355
6.8229
6.81213
6.80293
6.79504
6.78826
6.78244
6.77743
6.77311
6.7694
6.76619
6.76344
6.76107
6.75903
6.75728
6.75579
6.7545
6.75333
57.5093
47.6744
39.3138
33.4093
29.2053
26.0713
23.6255
21.6443
19.9921
18.5824
17.358
16.2792
15.3178
14.4535
13.6709
12.9588
12.3083
11.7128
11.1671
10.6669
10.2088
9.78999
9.40797
9.06065
8.74592
8.46204
8.20705
7.97935
7.77715
7.59876
7.44616
7.32219
7.22369
7.1445
7.08035
7.02787
6.98467
6.94884
6.91895
6.8939
6.8728
6.85496
6.83981
6.82692
6.81592
6.8065
6.79843
6.7915
6.78555
6.78042
6.77601
6.77221
6.76894
6.76612
6.7637
6.76162
6.75983
6.75831
6.75699
6.7558
44.7753
41.0428
36.4124
32.2284
28.7792
25.9838
23.6958
21.7893
20.171
18.774
17.5505
16.466
15.4951
14.6192
13.824
13.0988
12.4354
11.8274
11.2696
10.758
10.2894
9.86087
9.46994
9.11454
8.79252
8.5021
8.2413
8.00845
7.80172
7.61937
7.46339
7.33669
7.23605
7.15514
7.08961
7.03599
6.99186
6.95526
6.92474
6.89916
6.87761
6.85938
6.84392
6.83075
6.81951
6.8099
6.80166
6.79458
6.7885
6.78327
6.77877
6.77489
6.77155
6.76868
6.7662
6.76408
6.76226
6.7607
6.75936
6.75815
38.1175
36.3324
33.6279
30.737
28.0404
25.6619
23.6025
21.8215
20.2714
18.91
17.7029
16.6233
15.6504
14.7681
13.964
13.2285
12.5541
11.9349
11.3662
10.8442
10.3658
9.92809
9.52876
9.1657
8.83677
8.54015
8.27382
8.03607
7.82503
7.63891
7.47973
7.35045
7.24776
7.16523
7.09838
7.04369
6.99868
6.96135
6.93023
6.90413
6.88216
6.86357
6.8478
6.83438
6.82292
6.81312
6.80471
6.7975
6.7913
6.78597
6.78138
6.77743
6.77403
6.7711
6.76858
6.76641
6.76456
6.76298
6.76161
6.76038
33.9661
32.9726
31.2819
29.2568
27.1772
25.2004
23.3912
21.7627
20.3038
18.9955
17.8178
16.7525
15.7842
14.9003
14.0908
13.3476
12.6641
12.0353
11.4569
10.9254
10.4378
9.99156
9.58433
9.21406
8.87859
8.57611
8.30455
8.06217
7.84705
7.65737
7.49516
7.36344
7.25882
7.17475
7.10665
7.05095
7.00511
6.9671
6.9354
6.90883
6.88645
6.86753
6.85147
6.8378
6.82613
6.81615
6.8076
6.80026
6.79395
6.78852
6.78385
6.77982
6.77636
6.77338
6.77081
6.76861
6.76673
6.76512
6.76373
6.76249
31.1139
30.4979
29.3724
27.9148
26.3042
24.6744
23.1056
21.6369
20.2813
19.0378
17.8991
16.8555
15.8975
15.0164
14.2048
13.4562
12.7656
12.1285
11.5414
11.0013
10.5053
10.0512
9.63656
9.25953
8.91793
8.60992
8.33345
8.08671
7.86775
7.67472
7.50967
7.37564
7.26921
7.18369
7.11442
7.05777
7.01115
6.97249
6.94025
6.91324
6.89048
6.87124
6.85491
6.84101
6.82915
6.819
6.8103
6.80284
6.79643
6.79091
6.78616
6.78207
6.77855
6.77552
6.77291
6.77068
6.76876
6.76713
6.76572
6.76446
29.0317
28.6178
27.8268
26.7447
25.481
24.1352
22.7813
21.4668
20.2175
19.0448
17.9514
16.9351
15.9921
15.1173
14.3063
13.5546
12.8584
12.2145
11.6198
11.0719
10.5683
10.1068
9.68537
9.30205
8.95472
8.64155
8.36047
8.10965
7.88711
7.69093
7.52321
7.38704
7.27891
7.19203
7.12168
7.06414
7.01679
6.97753
6.94479
6.91735
6.89424
6.8747
6.85812
6.84401
6.83196
6.82166
6.81283
6.80525
6.79874
6.79314
6.78832
6.78417
6.78059
6.77752
6.77487
6.77261
6.77066
6.76901
6.76758
6.76631
27.449
27.1531
26.5707
25.7426
24.7338
23.6142
22.4447
21.2713
20.1251
19.0246
17.9796
16.9943
16.0695
15.204
14.3959
13.643
12.9428
12.2932
11.692
11.1371
10.6266
10.1584
9.7307
9.34154
8.9889
8.67094
8.38558
8.13096
7.90508
7.70599
7.5358
7.39762
7.28792
7.19978
7.12842
7.07005
7.02202
6.9822
6.949
6.92117
6.89773
6.87792
6.8611
6.84679
6.83457
6.82413
6.81517
6.80749
6.80089
6.79521
6.79032
6.78611
6.78249
6.77937
6.77669
6.7744
6.77243
6.77075
6.76931
6.76802
26.2127
25.9906
25.5444
24.892
24.0712
23.1294
22.114
21.0653
20.0148
18.9845
17.9887
17.0363
16.1318
15.2776
14.4743
13.7217
13.0189
12.3647
11.7579
11.1969
10.6802
10.2059
9.77245
9.37795
9.02041
8.69804
8.40873
8.15061
7.92165
7.71987
7.54739
7.40737
7.29622
7.20692
7.13462
7.0755
7.02684
6.9865
6.95287
6.92469
6.90094
6.88088
6.86384
6.84935
6.83698
6.8264
6.81733
6.80955
6.80286
6.79711
6.79216
6.7879
6.78423
6.78108
6.77837
6.77604
6.77405
6.77235
6.7709
6.76959
25.2288
25.0551
24.7014
24.1734
23.4923
22.6898
21.8011
20.8601
19.8959
18.9313
17.9834
17.064
16.181
15.3394
14.5423
13.7912
13.0869
12.4292
11.8176
11.2513
10.729
10.2493
9.81058
9.41121
9.04922
8.72281
8.42989
8.16856
7.93679
7.73255
7.55798
7.41627
7.3038
7.21344
7.14028
7.08047
7.03124
6.99043
6.95641
6.9279
6.90388
6.88358
6.86635
6.85169
6.83917
6.82847
6.8193
6.81143
6.80466
6.79885
6.79384
6.78953
6.78583
6.78264
6.7799
6.77755
6.77553
6.77382
6.77235
6.77103
24.4366
24.2961
24.007
23.5688
22.9926
22.2988
21.5134
20.6636
19.7754
18.8708
17.9679
17.0806
16.2191
15.3907
14.6006
13.852
13.147
12.4867
11.8711
11.3002
10.773
10.2884
9.84503
9.44128
9.07526
8.74521
8.44902
8.1848
7.95048
7.74401
7.56755
7.42432
7.31064
7.21933
7.1454
7.08496
7.03521
6.99398
6.9596
6.93079
6.90653
6.88602
6.86861
6.8538
6.84115
6.83034
6.82108
6.81313
6.80629
6.80042
6.79536
6.79101
6.78727
6.78404
6.78128
6.7789
6.77687
6.77514
6.77366
6.77233
23.7952
23.6781
23.4353
23.0629
22.566
21.9571
21.2551
20.4816
19.6589
18.8076
17.9459
17.0887
16.2479
15.4328
14.6501
13.9046
13.1996
12.5373
11.9185
11.3436
10.8122
10.3233
9.87576
9.46811
9.09851
8.7652
8.46611
8.1993
7.9627
7.75424
7.57609
7.4315
7.31675
7.22458
7.14997
7.08896
7.03876
6.99715
6.96245
6.93338
6.90889
6.8882
6.87063
6.85568
6.84292
6.83201
6.82266
6.81464
6.80775
6.80182
6.79672
6.79233
6.78855
6.7853
6.78251
6.78011
6.77807
6.77632
6.77482
6.77349
23.276
23.1757
22.9666
22.6432
22.2063
21.6637
21.0285
20.3179
19.5506
18.7456
17.9205
17.0907
16.2693
15.4668
14.6914
13.9493
13.2449
12.5812
11.9598
11.3816
10.8465
10.3539
9.90274
9.49168
9.11894
8.78277
8.48111
8.21203
7.97343
7.76323
7.5836
7.43781
7.32212
7.2292
7.15397
7.09248
7.04187
6.99993
6.96495
6.93565
6.91096
6.89011
6.8724
6.85733
6.84447
6.83348
6.82405
6.81597
6.80902
6.80305
6.79791
6.79348
6.78968
6.7864
6.78359
6.78118
6.77912
6.77736
6.77585
6.77451
22.8589
22.7709
22.5866
22.2996
21.9083
21.4169
20.8347
20.1749
19.4536
18.6878
17.8943
17.0887
16.2847
15.4938
14.7254
13.9868
13.2832
12.6185
11.995
11.414
10.8759
10.3802
9.92591
9.51194
9.13649
8.79787
8.49402
8.22298
7.98266
7.77095
7.59004
7.44323
7.32673
7.23316
7.15742
7.0955
7.04454
7.00232
6.9671
6.9376
6.91275
6.89175
6.87392
6.85875
6.84581
6.83474
6.82525
6.81711
6.81012
6.8041
6.79893
6.79447
6.79064
6.78735
6.78452
6.78209
6.78002
6.77825
6.77673
6.77538
22.5291
22.4501
22.284
22.024
21.667
21.2148
20.6737
20.0543
19.3701
18.6366
17.8696
17.0845
16.2955
15.5149
14.7527
14.0172
13.3146
12.6494
12.0243
11.4411
10.9004
10.4021
9.94527
9.52886
9.15116
8.81049
8.5048
8.23213
7.99037
7.7774
7.59543
7.44775
7.33058
7.23647
7.1603
7.09802
7.04678
7.00431
6.96889
6.93923
6.91424
6.89312
6.87519
6.85994
6.84692
6.83579
6.82625
6.81806
6.81103
6.80498
6.79978
6.7953
6.79145
6.78814
6.78529
6.78285
6.78077
6.77899
6.77747
6.77611
22.2761
22.2035
22.0506
21.8103
21.4785
21.0555
20.5456
19.9571
19.3018
18.5937
17.8479
17.0795
16.3028
15.5307
14.7738
14.0412
13.3395
12.6739
12.0476
11.4627
10.92
10.4196
9.96078
9.54242
9.16293
8.82061
8.51345
8.23946
7.99655
7.78258
7.59975
7.45138
7.33367
7.23913
7.1626
7.10005
7.04857
7.00591
6.97033
6.94054
6.91543
6.89422
6.87621
6.86089
6.84781
6.83663
6.82705
6.81883
6.81176
6.80569
6.80047
6.79597
6.7921
6.78877
6.78591
6.78347
6.78137
6.77959
6.77806
6.7767
22.0923
22.0241
21.8804
21.6538
21.3398
20.9375
20.4499
19.8838
19.2497
18.5605
17.8305
17.0748
16.3075
15.5419
14.7892
14.0588
13.358
12.6922
12.065
11.4789
10.9347
10.4328
9.97243
9.55261
9.17176
8.82822
8.51994
8.24497
8.0012
7.78646
7.60299
7.45411
7.33598
7.24112
7.16433
7.10157
7.04991
7.00711
6.97141
6.94152
6.91632
6.89504
6.87697
6.8616
6.84848
6.83726
6.82765
6.8194
6.81232
6.80622
6.80098
6.79647
6.79259
6.78925
6.78638
6.78392
6.78182
6.78004
6.7785
6.77714
21.9724
21.9071
21.7691
21.5512
21.2485
20.8595
20.3863
19.8349
19.2146
18.5379
17.8185
17.0712
16.3103
15.5492
14.7993
14.0705
13.3703
12.7043
12.0767
11.4897
10.9446
10.4416
9.9802
9.55941
9.17766
8.83329
8.52428
8.24865
8.0043
7.78906
7.60516
7.45593
7.33753
7.24245
7.16549
7.10258
7.05081
7.00791
6.97213
6.94217
6.91692
6.89559
6.87748
6.86208
6.84893
6.83769
6.82805
6.81979
6.81268
6.80658
6.80132
6.7968
6.79291
6.78957
6.78669
6.78423
6.78213
6.78033
6.7788
6.77743
21.9133
21.8493
21.7141
21.5005
21.2033
20.8207
20.3546
19.8103
19.197
18.5264
17.8123
17.0693
16.3116
15.5527
14.8043
14.0763
13.3764
12.7104
12.0825
11.4951
10.9495
10.446
9.98409
9.56282
9.18062
8.83583
8.52645
8.25049
8.00585
7.79035
7.60624
7.45684
7.33831
7.24312
7.16607
7.10309
7.05126
7.00831
6.97249
6.9425
6.91722
6.89587
6.87774
6.86232
6.84915
6.8379
6.82825
6.81998
6.81287
6.80675
6.80149
6.79697
6.79307
6.78972
6.78685
6.78438
6.78228
6.78048
6.77894
6.77758
21.9133
21.8493
21.7141
21.5005
21.2033
20.8207
20.3546
19.8103
19.197
18.5264
17.8123
17.0693
16.3116
15.5527
14.8043
14.0763
13.3764
12.7104
12.0825
11.4951
10.9495
10.446
9.98409
9.56282
9.18062
8.83583
8.52645
8.25049
8.00585
7.79035
7.60624
7.45684
7.33831
7.24312
7.16607
7.10309
7.05126
7.00832
6.97249
6.9425
6.91722
6.89587
6.87774
6.86232
6.84915
6.8379
6.82825
6.81998
6.81287
6.80675
6.80149
6.79697
6.79307
6.78972
6.78685
6.78438
6.78228
6.78048
6.77894
6.77758
21.9724
21.9071
21.7691
21.5512
21.2485
20.8595
20.3863
19.8349
19.2146
18.5379
17.8185
17.0712
16.3103
15.5492
14.7993
14.0705
13.3703
12.7043
12.0767
11.4897
10.9446
10.4416
9.9802
9.55941
9.17766
8.83329
8.52428
8.24865
8.0043
7.78906
7.60516
7.45593
7.33753
7.24246
7.16549
7.10258
7.05081
7.00792
6.97213
6.94217
6.91692
6.89559
6.87748
6.86208
6.84893
6.83769
6.82805
6.81979
6.81268
6.80658
6.80132
6.7968
6.79291
6.78957
6.78669
6.78423
6.78213
6.78033
6.7788
6.77743
22.0923
22.0241
21.8804
21.6538
21.3398
20.9375
20.4499
19.8838
19.2497
18.5605
17.8305
17.0748
16.3075
15.5419
14.7892
14.0588
13.358
12.6922
12.065
11.4789
10.9347
10.4328
9.97243
9.55261
9.17177
8.82822
8.51994
8.24497
8.0012
7.78646
7.60299
7.45411
7.33598
7.24113
7.16433
7.10157
7.04991
7.00711
6.97141
6.94152
6.91632
6.89504
6.87697
6.8616
6.84848
6.83726
6.82765
6.8194
6.81232
6.80622
6.80098
6.79647
6.79259
6.78925
6.78638
6.78393
6.78183
6.78004
6.7785
6.77714
22.2761
22.2035
22.0506
21.8103
21.4785
21.0555
20.5456
19.9571
19.3018
18.5937
17.8479
17.0795
16.3028
15.5307
14.7738
14.0412
13.3395
12.6739
12.0476
11.4627
10.92
10.4196
9.96078
9.54242
9.16293
8.82061
8.51345
8.23946
7.99655
7.78257
7.59975
7.45138
7.33366
7.23913
7.1626
7.10005
7.04856
7.00592
6.97033
6.94054
6.91543
6.89422
6.87621
6.86089
6.84781
6.83663
6.82705
6.81883
6.81177
6.80569
6.80047
6.79597
6.7921
6.78877
6.78592
6.78347
6.78137
6.77959
6.77806
6.7767
22.5291
22.45
22.284
22.024
21.667
21.2148
20.6737
20.0543
19.3701
18.6366
17.8696
17.0845
16.2955
15.5148
14.7527
14.0172
13.3146
12.6493
12.0243
11.4411
10.9004
10.4021
9.94527
9.52886
9.15117
8.81049
8.5048
8.23212
7.99037
7.7774
7.59543
7.44775
7.33058
7.23648
7.16029
7.09803
7.04677
7.00432
6.96889
6.93923
6.91423
6.89312
6.87519
6.85994
6.84692
6.83579
6.82625
6.81806
6.81103
6.80499
6.79978
6.7953
6.79145
6.78814
6.78529
6.78286
6.78077
6.77899
6.77747
6.77611
22.8589
22.7709
22.5866
22.2996
21.9083
21.4169
20.8347
20.1749
19.4536
18.6878
17.8943
17.0887
16.2847
15.4938
14.7254
13.9867
13.2832
12.6185
11.995
11.414
10.8759
10.3802
9.92592
9.51193
9.1365
8.79787
8.49402
8.22297
7.98266
7.77095
7.59005
7.44323
7.32673
7.23317
7.15741
7.09551
7.04454
7.00232
6.96709
6.93761
6.91275
6.89175
6.87392
6.85875
6.84581
6.83474
6.82525
6.81711
6.81012
6.8041
6.79893
6.79448
6.79064
6.78735
6.78452
6.78209
6.78002
6.77825
6.77673
6.77538
23.276
23.1757
22.9666
22.6432
22.2063
21.6637
21.0285
20.3179
19.5506
18.7456
17.9205
17.0907
16.2693
15.4668
14.6914
13.9493
13.2449
12.5812
11.9598
11.3816
10.8465
10.3539
9.90274
9.49168
9.11894
8.78276
8.48112
8.21203
7.97344
7.76322
7.5836
7.43781
7.32212
7.2292
7.15397
7.09249
7.04186
6.99994
6.96495
6.93566
6.91096
6.89011
6.8724
6.85733
6.84447
6.83348
6.82405
6.81597
6.80902
6.80305
6.79791
6.79348
6.78968
6.7864
6.78359
6.78118
6.77912
6.77736
6.77585
6.77451
23.7952
23.6781
23.4353
23.0629
22.566
21.9571
21.2551
20.4816
19.6589
18.8076
17.9459
17.0887
16.2479
15.4328
14.6501
13.9046
13.1996
12.5373
11.9185
11.3436
10.8122
10.3233
9.87577
9.46811
9.09852
8.7652
8.46611
8.19929
7.9627
7.75424
7.5761
7.4315
7.31675
7.22459
7.14996
7.08897
7.03875
6.99716
6.96244
6.93339
6.90889
6.8882
6.87063
6.85568
6.84292
6.83201
6.82266
6.81464
6.80775
6.80182
6.79672
6.79233
6.78855
6.7853
6.78251
6.78012
6.77807
6.77632
6.77483
6.77349
24.4366
24.2961
24.007
23.5688
22.9926
22.2988
21.5134
20.6636
19.7754
18.8708
17.9679
17.0806
16.2191
15.3907
14.6006
13.852
13.147
12.4867
11.8711
11.3002
10.773
10.2884
9.84504
9.44127
9.07527
8.7452
8.44903
8.1848
7.95048
7.74401
7.56755
7.42432
7.31064
7.21934
7.14539
7.08497
7.0352
6.99399
6.95959
6.9308
6.90652
6.88602
6.86861
6.8538
6.84115
6.83034
6.82108
6.81313
6.80629
6.80042
6.79536
6.79101
6.78727
6.78405
6.78128
6.77891
6.77688
6.77514
6.77366
6.77233
25.2288
25.0551
24.7013
24.1733
23.4923
22.6898
21.8011
20.8601
19.8959
18.9313
17.9834
17.064
16.181
15.3394
14.5423
13.7912
13.0869
12.4292
11.8176
11.2513
10.729
10.2493
9.81058
9.4112
9.04922
8.7228
8.4299
8.16856
7.9368
7.73255
7.55798
7.41627
7.30379
7.21345
7.14027
7.08048
7.03123
6.99044
6.9564
6.9279
6.90387
6.88358
6.86635
6.85169
6.83917
6.82847
6.8193
6.81143
6.80467
6.79885
6.79384
6.78954
6.78583
6.78264
6.7799
6.77755
6.77554
6.77382
6.77235
6.77103
26.2127
25.9906
25.5444
24.892
24.0712
23.1294
22.114
21.0653
20.0148
18.9845
17.9887
17.0362
16.1318
15.2776
14.4743
13.7217
13.0189
12.3647
11.7579
11.1969
10.6802
10.2059
9.77246
9.37794
9.02042
8.69803
8.40874
8.1506
7.92166
7.71987
7.54739
7.40737
7.29621
7.20693
7.13461
7.07551
7.02683
6.98652
6.95286
6.92469
6.90094
6.88088
6.86384
6.84935
6.83698
6.8264
6.81733
6.80955
6.80286
6.79711
6.79216
6.7879
6.78424
6.78108
6.77837
6.77604
6.77405
6.77236
6.7709
6.76959
27.4489
27.1531
26.5707
25.7426
24.7338
23.6142
22.4446
21.2713
20.125
19.0246
17.9796
16.9943
16.0695
15.204
14.3959
13.643
12.9428
12.2932
11.692
11.1371
10.6266
10.1584
9.7307
9.34153
8.98891
8.67093
8.38559
8.13095
7.90509
7.70599
7.5358
7.39762
7.28792
7.1998
7.1284
7.07007
7.02201
6.98221
6.94899
6.92118
6.89773
6.87792
6.8611
6.84679
6.83457
6.82413
6.81517
6.80749
6.80089
6.79521
6.79032
6.78611
6.78249
6.77937
6.7767
6.7744
6.77243
6.77075
6.76931
6.76802
29.0317
28.6178
27.8268
26.7447
25.481
24.1351
22.7813
21.4668
20.2175
19.0448
17.9514
16.9351
15.9921
15.1173
14.3063
13.5546
12.8584
12.2145
11.6198
11.0719
10.5683
10.1068
9.68538