/*--------------------------------*- C++ -*----------------------------------*\
| =========                 |                                                 |
| \\      /  F ield         | OpenFOAM: The Open Source CFD Toolbox           |
|  \\    /   O peration     | Version:  2406                                  |
|   \\  /    A nd           | Website:  www.openfoam.com                      |
|    \\/     M anipulation  |                                                 |
\*---------------------------------------------------------------------------*/
FoamFile
{
    version     2.0;
    format      ascii;
    arch        "LSB;label=32;scalar=64";
    class       volScalarField;
    location    "2e-07";
    object      He2_m;
}
// * * * * * * * * * * * * * * * * * * * * * * * * * * * * * * * * * * * * * //

dimensions      [0 -3 0 0 0 0 0];

internalField   nonuniform List<scalar> 
5880
(
9.4425e-26
2.80004e-25
4.4842e-25
5.80592e-25
6.62127e-25
6.86957e-25
6.58427e-25
5.87709e-25
4.90528e-25
3.83457e-25
2.80762e-25
1.9236e-25
1.2312e-25
7.34551e-26
4.07388e-26
2.0936e-26
9.93387e-27
4.33589e-27
1.73499e-27
6.34762e-28
2.11988e-28
6.45916e-29
1.79694e-29
4.5726e-30
1.06698e-30
2.29013e-31
4.53643e-32
8.32168e-33
1.41818e-33
2.25827e-34
3.47966e-35
5.47588e-36
9.02567e-37
1.56029e-37
2.83054e-38
5.39014e-39
1.07758e-39
2.26164e-40
4.98274e-41
1.15218e-41
2.79546e-42
7.11379e-43
1.89786e-43
5.30555e-44
1.55324e-44
4.75863e-45
1.52475e-45
5.10547e-46
1.78487e-46
6.50918e-47
2.47405e-47
9.79159e-48
4.03118e-48
1.72444e-48
7.6564e-49
3.5246e-49
1.68062e-49
8.27747e-50
4.26403e-50
2.03956e-50
4.45698e-24
1.31937e-23
2.1053e-23
2.71114e-23
3.0706e-23
3.16013e-23
3.00188e-23
2.65372e-23
2.19226e-23
1.69509e-23
1.22672e-23
8.3e-24
5.24125e-24
3.08195e-24
1.68297e-24
8.50812e-25
3.96833e-25
1.70168e-25
6.68725e-26
2.40216e-26
7.87508e-27
2.35492e-27
6.42772e-28
1.60408e-28
3.66881e-29
7.7136e-30
1.49564e-30
2.68363e-31
4.47028e-32
6.95281e-33
1.04609e-33
1.60823e-34
2.59194e-35
4.38543e-36
7.79412e-37
1.45556e-37
2.85655e-38
5.89114e-39
1.27652e-39
2.9057e-40
6.94577e-41
1.74281e-41
4.58802e-42
1.26653e-42
3.66385e-43
1.10988e-43
3.51845e-44
1.16626e-44
4.03841e-45
1.45947e-45
5.49994e-46
2.15915e-46
8.82134e-47
3.74629e-47
1.65197e-47
7.55567e-48
3.58069e-48
1.75348e-48
8.98122e-49
4.276e-49
1.34965e-22
3.98808e-22
6.33989e-22
8.11968e-22
9.13356e-22
9.32702e-22
8.78595e-22
7.69901e-22
6.30255e-22
4.82752e-22
3.4595e-22
2.31675e-22
1.44722e-22
8.41356e-23
4.54005e-23
2.26715e-23
1.04433e-23
4.42288e-24
1.71705e-24
6.09568e-25
1.97593e-25
5.84519e-26
1.5789e-26
3.90039e-27
8.8314e-28
1.838e-28
3.52687e-29
6.26022e-30
1.03109e-30
1.58475e-31
2.35509e-32
3.5761e-33
5.6937e-34
9.51907e-35
1.67225e-35
3.088e-36
5.99485e-37
1.22351e-37
2.62478e-38
5.91781e-39
1.40173e-39
3.48668e-40
9.10299e-41
2.49315e-41
7.15845e-42
2.15313e-42
6.77988e-43
2.23305e-43
7.68591e-44
2.76189e-44
1.03522e-44
4.04349e-45
1.64412e-45
6.95096e-46
3.05214e-46
1.39043e-46
6.56467e-47
3.20363e-47
1.63505e-47
7.76692e-48
2.9357e-21
8.65751e-21
1.37071e-20
1.74528e-20
1.94925e-20
1.97479e-20
1.84471e-20
1.60264e-20
1.30052e-20
9.87315e-21
7.01102e-21
4.65113e-21
2.87722e-21
1.65586e-21
8.84266e-22
4.36934e-22
1.99162e-22
8.34911e-23
3.21004e-23
1.12941e-23
3.63118e-24
1.06628e-24
2.86114e-25
7.02523e-26
1.58169e-26
3.27388e-27
6.24782e-28
1.10273e-28
1.80537e-29
2.75676e-30
4.06812e-31
6.13233e-32
9.6914e-33
1.60815e-33
2.80397e-34
5.13943e-35
9.90443e-36
2.00695e-36
4.27544e-37
9.57398e-38
2.25286e-38
5.56828e-39
1.44489e-39
3.93409e-40
1.12323e-40
3.3603e-41
1.05267e-41
3.45015e-42
1.18197e-42
4.22854e-43
1.57829e-43
6.14011e-44
2.48721e-44
1.04779e-44
4.58532e-45
2.08224e-45
9.80146e-46
4.76992e-46
2.42748e-46
1.15098e-46
4.89568e-20
1.44055e-19
2.27053e-19
2.87271e-19
3.1842e-19
3.19937e-19
2.96316e-19
2.55218e-19
2.05319e-19
1.54519e-19
1.08761e-19
7.15058e-20
4.38272e-20
2.49853e-20
1.32149e-20
6.46709e-21
2.92007e-21
1.21313e-21
4.62542e-22
1.61524e-22
5.15941e-23
1.50666e-23
4.02415e-24
9.84287e-25
2.20883e-25
4.55874e-26
8.67594e-27
1.52699e-27
2.49237e-28
3.79262e-29
5.57454e-30
8.36659e-31
1.31612e-31
2.17328e-32
3.77023e-33
6.87501e-34
1.31805e-34
2.65696e-35
5.63108e-36
1.25458e-36
2.93747e-37
7.22512e-38
1.86595e-38
5.05727e-39
1.43751e-39
4.28213e-40
1.33594e-40
4.36131e-41
1.48848e-41
5.30587e-42
1.97359e-42
7.65284e-43
3.09034e-43
1.29802e-43
5.66448e-44
2.56549e-44
1.20459e-44
5.84847e-45
2.96924e-45
1.4056e-45
6.51617e-19
1.91252e-18
2.99923e-18
3.76834e-18
4.14308e-18
4.1268e-18
3.7885e-18
3.23447e-18
2.57949e-18
1.9245e-18
1.34283e-18
8.75093e-19
5.31569e-19
3.0029e-19
1.57373e-19
7.6316e-20
3.41553e-20
1.40718e-20
5.32467e-21
1.84708e-21
5.86694e-22
1.70552e-22
4.53926e-23
1.10734e-23
2.48012e-24
5.11103e-25
9.71499e-26
1.7078e-26
2.78365e-27
4.22853e-28
6.2015e-29
9.28294e-30
1.45588e-30
2.39605e-31
4.14182e-32
7.52417e-33
1.43689e-33
2.88503e-34
6.08994e-35
1.35137e-35
3.15149e-36
7.72105e-37
1.98633e-37
5.36316e-38
1.51884e-38
4.50824e-39
1.40162e-39
4.56044e-40
1.55144e-40
5.51325e-41
2.04467e-41
7.90608e-42
3.18401e-42
1.33394e-42
5.80701e-43
2.62396e-43
1.22933e-43
5.95634e-44
3.01766e-44
1.42644e-44
7.11384e-18
2.0818e-17
3.24605e-17
4.04713e-17
4.41063e-17
4.35312e-17
3.95974e-17
3.35032e-17
2.64833e-17
1.95864e-17
1.35477e-17
8.75149e-18
5.26908e-18
2.95007e-18
1.53228e-18
7.36538e-19
3.2685e-19
1.33595e-19
5.01905e-20
1.73029e-20
5.46789e-21
1.58315e-21
4.20107e-22
1.02275e-22
2.28768e-23
4.71077e-24
8.9499e-25
1.57268e-25
2.56213e-26
3.88885e-27
5.69608e-28
8.51174e-29
1.33211e-29
2.18694e-30
3.76993e-31
6.82817e-32
1.29987e-32
2.60138e-33
5.47282e-34
1.21032e-34
2.81296e-35
6.86832e-36
1.76103e-36
4.73915e-37
1.33778e-37
3.95828e-38
1.22686e-38
3.97994e-39
1.35006e-39
4.78434e-40
1.76962e-40
6.82506e-41
2.74193e-41
1.14605e-41
4.97797e-42
2.24458e-42
1.04947e-42
5.07528e-43
2.56634e-43
1.2114e-43
6.49773e-17
1.89493e-16
2.93534e-16
3.62846e-16
3.91681e-16
3.82824e-16
3.44912e-16
2.8913e-16
2.26492e-16
1.66025e-16
1.13828e-16
7.2884e-17
4.34946e-17
2.41366e-17
1.24265e-17
5.92177e-18
2.60619e-18
1.05705e-18
3.94378e-19
1.3515e-19
4.24995e-20
1.22583e-20
3.24394e-21
7.88293e-22
1.76134e-22
3.625e-23
6.88562e-24
1.20983e-24
1.97066e-25
2.98983e-26
4.37549e-27
6.52986e-28
1.02021e-28
1.67143e-29
2.87448e-30
5.19279e-31
9.85803e-32
1.96711e-32
4.12601e-33
9.09673e-34
2.10768e-34
5.13034e-35
1.31136e-35
3.5183e-36
9.90181e-37
2.92118e-37
9.02818e-38
2.9206e-38
9.88043e-39
3.49228e-39
1.28847e-39
4.95735e-40
1.98698e-40
8.28653e-41
3.59171e-41
1.61624e-41
7.54225e-42
3.64084e-42
1.83763e-42
8.66202e-43
5.04157e-16
1.46419e-15
2.25099e-15
2.75593e-15
2.94427e-15
2.84805e-15
2.54047e-15
2.10928e-15
1.63706e-15
1.18917e-15
8.08025e-16
5.12771e-16
3.03283e-16
1.66812e-16
8.51301e-17
4.02221e-17
1.75577e-17
7.06733e-18
2.61882e-18
8.92165e-19
2.79191e-19
8.02227e-20
2.11703e-20
5.13479e-21
1.14598e-21
2.3571e-22
4.47604e-23
7.8635e-24
1.28062e-24
1.94211e-25
2.83991e-26
4.23298e-27
6.60285e-28
1.07964e-28
1.85257e-29
3.33842e-30
6.32088e-31
1.25778e-31
2.63061e-32
5.78274e-33
1.33586e-33
3.24194e-34
8.26209e-35
2.21014e-35
6.20212e-36
1.82451e-36
5.62312e-37
1.81414e-37
6.12111e-38
2.15802e-38
7.94237e-39
3.04858e-39
1.21913e-39
5.0732e-40
2.19433e-40
9.85461e-41
4.58993e-41
2.2117e-41
1.11429e-41
5.24476e-42
3.36367e-15
9.71982e-15
1.48118e-14
1.79403e-14
1.89515e-14
1.81317e-14
1.60055e-14
1.31578e-14
1.01152e-14
7.27977e-15
4.90136e-15
3.08222e-15
1.80659e-15
9.84798e-16
4.98171e-16
2.33373e-16
1.01046e-16
4.0367e-17
1.48566e-17
5.03141e-18
1.56675e-18
4.48423e-19
1.17985e-19
2.85562e-20
6.36414e-21
1.30783e-21
2.4821e-22
4.3587e-23
7.09526e-24
1.07533e-24
1.57086e-25
2.33817e-26
3.64089e-27
5.94103e-28
1.01706e-28
1.82817e-29
3.45211e-30
6.85002e-31
1.42851e-31
3.13098e-32
7.21131e-33
1.74486e-33
4.43358e-34
1.18251e-34
3.30876e-35
9.70586e-36
2.98302e-36
9.59776e-37
3.22986e-37
1.13579e-37
4.16986e-38
1.59674e-38
6.3708e-39
2.64528e-39
1.14176e-39
5.11728e-40
2.37886e-40
1.14419e-40
5.75413e-41
2.70424e-41
1.94957e-14
5.59861e-14
8.44408e-14
1.01049e-13
1.05446e-13
9.97152e-14
8.70682e-14
7.08468e-14
5.39327e-14
3.8446e-14
2.56432e-14
1.59765e-14
9.27864e-15
5.01227e-15
2.51314e-15
1.16727e-15
5.01316e-16
1.98765e-16
7.26552e-17
2.44587e-17
7.57772e-18
2.15986e-18
5.66436e-19
1.36759e-19
3.04235e-20
6.2438e-21
1.18382e-21
2.07708e-22
3.37825e-23
5.11475e-24
7.46176e-25
1.10879e-25
1.72311e-26
2.80528e-27
4.79043e-28
8.58768e-29
1.61703e-29
3.1993e-30
6.65192e-31
1.45353e-31
3.33759e-32
8.0511e-33
2.03954e-33
5.42351e-34
1.51307e-34
4.42557e-35
1.35632e-35
4.3519e-36
1.46059e-36
5.12291e-37
1.87607e-37
7.16658e-38
2.85273e-38
1.18186e-38
5.09026e-39
2.27673e-39
1.0563e-39
5.07118e-40
2.54558e-40
1.19441e-40
9.90393e-14
2.82193e-13
4.20495e-13
4.96435e-13
5.1121e-13
4.77506e-13
4.12239e-13
3.31902e-13
2.50124e-13
1.7656e-13
1.16634e-13
7.1979e-14
4.14129e-14
2.21663e-14
1.10152e-14
5.07239e-15
2.16081e-15
8.50273e-16
3.08674e-16
1.03282e-16
3.18311e-17
9.03302e-18
2.36051e-18
5.68294e-19
1.2614e-19
2.58412e-20
4.89218e-21
8.57209e-22
1.39234e-22
2.10497e-23
3.06555e-24
4.54599e-25
7.04839e-26
1.14458e-26
1.94919e-27
3.48419e-28
6.54095e-29
1.29016e-29
2.6741e-30
5.82488e-31
1.33329e-31
3.20615e-32
8.0967e-33
2.14646e-33
5.97022e-34
1.74107e-34
5.32054e-35
1.70236e-35
5.69792e-36
1.99322e-36
7.28078e-37
2.7744e-37
1.10176e-37
4.55409e-38
1.95715e-38
8.73547e-39
4.04474e-39
1.93814e-39
9.7106e-40
4.54862e-40
4.44565e-13
1.25408e-12
1.84226e-12
2.14228e-12
2.17471e-12
2.00515e-12
1.71081e-12
1.36244e-12
1.01612e-12
7.10066e-13
4.64442e-13
2.83842e-13
1.61752e-13
8.5773e-14
4.22403e-14
1.92839e-14
8.14806e-15
3.18203e-15
1.14721e-15
3.81492e-16
1.16942e-16
3.30329e-17
8.59875e-18
2.0635e-18
4.56796e-19
9.33693e-20
1.76415e-20
3.0855e-21
5.00267e-22
7.54879e-23
1.09702e-23
1.62291e-24
2.50968e-25
4.06399e-26
6.90035e-27
1.22965e-27
2.30115e-28
4.52428e-29
9.34706e-30
2.02942e-30
4.63021e-31
1.10984e-31
2.79386e-32
7.38347e-33
2.04736e-33
5.95271e-34
1.81377e-34
5.7868e-35
1.93153e-35
6.73869e-36
2.45512e-36
9.33208e-37
3.69701e-37
1.52462e-37
6.53763e-38
2.91178e-38
1.34548e-38
6.43476e-39
3.21784e-39
1.50464e-39
1.77668e-12
4.94732e-12
7.14682e-12
8.17176e-12
8.16924e-12
7.43069e-12
6.26317e-12
4.93199e-12
3.63918e-12
2.51679e-12
1.62952e-12
9.8597e-13
5.5641e-13
2.92266e-13
1.42625e-13
6.45494e-14
2.70525e-14
1.0485e-14
3.75406e-15
1.24063e-15
3.78216e-16
1.06325e-16
2.75637e-17
6.59137e-18
1.45472e-18
2.9656e-19
5.58998e-20
9.75502e-21
1.57815e-21
2.37597e-22
3.44436e-23
5.08185e-24
7.83614e-25
1.2651e-25
2.14132e-26
3.80358e-27
7.09472e-28
1.39028e-28
2.86278e-29
6.19509e-30
1.4088e-30
3.36587e-31
8.44597e-32
2.22504e-32
6.15079e-33
1.78297e-33
5.41669e-34
1.72326e-34
5.73599e-35
1.9958e-35
7.25249e-36
2.74983e-36
1.08675e-36
4.4713e-37
1.91305e-37
8.50231e-38
3.92074e-38
1.87144e-38
9.34071e-39
4.35976e-39
6.36809e-12
1.74344e-11
2.46949e-11
2.77151e-11
2.72583e-11
2.44463e-11
2.03485e-11
1.58396e-11
1.15598e-11
7.90963e-12
5.06788e-12
3.0352e-12
1.69587e-12
8.82272e-13
4.26608e-13
1.91404e-13
7.95672e-14
3.06075e-14
1.08837e-14
3.5746e-15
1.08375e-15
3.03191e-16
7.82656e-17
1.86466e-17
4.10193e-18
8.33794e-19
1.56747e-19
2.7285e-20
4.40323e-21
6.61258e-22
9.56044e-23
1.40653e-23
2.16234e-24
3.4801e-25
5.87158e-26
1.03955e-26
1.93266e-27
3.77473e-28
7.74699e-29
1.67095e-29
3.78749e-30
9.01994e-31
2.25622e-31
5.92546e-32
1.63304e-32
4.71976e-33
1.42973e-33
4.53577e-34
1.50565e-34
5.225e-35
1.89385e-35
7.16299e-36
2.82415e-36
1.1593e-36
4.94918e-37
2.19497e-37
1.01013e-37
4.81226e-38
2.39736e-38
1.11691e-38
2.06204e-11
5.52125e-11
7.64323e-11
8.40473e-11
8.12539e-11
7.18177e-11
5.90169e-11
4.53994e-11
3.27609e-11
2.21717e-11
1.40544e-11
8.32969e-12
4.60721e-12
2.37373e-12
1.13725e-12
5.05848e-13
2.08597e-13
7.96507e-14
2.81329e-14
9.18393e-15
2.76934e-15
7.71045e-16
1.98196e-16
4.70434e-17
1.03144e-17
2.09031e-18
3.91874e-19
6.80339e-20
1.0951e-20
1.64029e-21
2.36505e-22
3.4694e-23
5.31772e-24
8.53193e-25
1.43496e-25
2.53245e-26
4.69304e-27
9.13665e-28
1.86915e-28
4.01879e-29
9.0807e-30
2.15589e-30
5.3763e-31
1.40776e-31
3.86842e-32
1.11485e-32
3.3678e-33
1.06553e-33
3.52777e-34
1.22111e-34
4.41513e-35
1.66592e-35
6.55313e-36
2.68407e-36
1.14341e-36
5.06065e-37
2.32434e-37
1.10523e-37
5.49586e-38
2.5558e-38
6.0747e-11
1.57993e-10
2.13003e-10
2.2911e-10
2.17568e-10
1.89457e-10
1.53666e-10
1.1679e-10
8.33091e-11
5.5751e-11
3.49542e-11
2.0497e-11
1.12214e-11
5.72536e-12
2.71795e-12
1.19866e-12
4.90422e-13
1.85924e-13
6.52447e-14
2.11755e-14
6.35237e-15
1.76055e-15
4.50715e-16
1.06597e-16
2.32968e-17
4.70756e-18
8.80153e-19
1.52412e-19
2.44711e-20
3.65615e-21
5.25771e-22
7.69141e-23
1.17553e-23
1.88051e-24
3.15334e-25
5.54837e-26
1.0251e-26
1.98971e-27
4.0583e-28
8.69973e-29
1.95999e-29
4.63986e-30
1.15379e-30
3.0127e-31
8.25607e-32
2.37299e-32
7.14973e-33
2.25634e-33
7.45182e-34
2.57319e-34
9.28211e-35
3.49443e-35
1.37157e-35
5.60591e-36
2.38325e-36
1.05273e-36
4.82602e-37
2.29061e-37
1.13702e-37
5.27806e-38
1.63948e-10
4.10666e-10
5.37226e-10
5.64415e-10
5.26211e-10
4.51354e-10
3.61267e-10
2.71215e-10
1.91193e-10
1.26485e-10
7.84198e-11
4.54908e-11
2.46491e-11
1.24548e-11
5.85931e-12
2.56266e-12
1.04059e-12
3.91817e-13
1.36662e-13
4.41157e-14
1.31711e-14
3.63507e-15
9.27178e-16
2.18569e-16
4.76288e-17
9.59881e-18
1.79024e-18
3.0928e-19
4.95441e-20
7.38518e-21
1.05947e-21
1.54598e-22
2.35667e-23
3.75997e-24
6.28787e-25
1.10335e-25
2.03295e-26
3.93519e-27
8.00463e-28
1.71133e-28
3.84526e-29
9.07893e-30
2.2518e-30
5.86484e-31
1.6032e-31
4.59671e-32
1.38165e-32
4.35007e-33
1.43338e-33
4.93857e-34
1.7776e-34
6.678e-35
2.61578e-35
1.067e-35
4.52744e-36
1.99615e-36
9.13448e-37
4.32807e-37
2.14476e-37
9.93851e-38
4.08059e-10
9.7448e-10
1.23257e-09
1.26342e-09
1.15614e-09
9.76744e-10
7.7141e-10
5.71931e-10
3.98353e-10
2.60462e-10
1.59661e-10
9.16163e-11
4.91345e-11
2.45905e-11
1.14674e-11
4.97575e-12
2.00614e-12
7.50648e-13
2.60379e-13
8.36487e-14
2.48698e-14
6.83889e-15
1.73885e-15
4.08775e-16
8.88579e-17
1.7868e-17
3.3256e-18
5.73395e-19
9.16753e-20
1.36387e-20
1.95259e-21
2.84304e-22
4.32414e-23
6.88308e-24
1.14837e-24
2.0103e-25
3.69522e-26
7.13581e-27
1.44806e-27
3.08854e-28
6.92351e-29
1.6309e-29
4.03577e-30
1.04874e-30
2.86041e-31
8.18338e-32
2.4544e-32
7.71118e-33
2.5356e-33
8.71837e-34
3.13185e-34
1.17427e-34
4.59089e-35
1.86921e-35
7.91703e-36
3.48452e-36
1.59182e-36
7.52993e-37
3.72544e-37
1.72335e-37
9.42115e-10
2.12077e-09
2.58533e-09
2.58374e-09
2.3207e-09
1.93117e-09
1.50482e-09
1.10163e-09
7.5794e-10
4.89714e-10
2.96774e-10
1.68456e-10
8.94359e-11
4.4348e-11
2.05096e-11
8.83379e-12
3.53876e-12
1.31677e-12
4.54584e-13
1.4545e-13
4.30965e-14
1.18167e-14
2.99711e-15
7.03072e-16
1.52546e-16
3.06234e-17
5.69077e-18
9.79726e-19
1.56408e-19
2.32339e-20
3.3209e-21
4.8269e-22
7.3281e-23
1.16426e-23
1.93868e-24
3.3871e-25
6.21357e-26
1.19749e-26
2.42518e-27
5.16222e-28
1.15489e-28
2.71502e-29
6.70514e-30
1.73897e-30
4.73371e-31
1.35164e-31
4.04613e-32
1.26879e-32
4.16422e-33
1.42917e-33
5.12459e-34
1.91799e-34
7.48534e-35
3.04244e-35
1.28645e-35
5.65271e-36
2.57815e-36
1.21765e-36
6.01508e-37
2.77783e-37
2.02728e-09
4.25122e-09
4.98214e-09
4.85372e-09
4.28023e-09
3.5088e-09
2.69748e-09
1.94952e-09
1.32471e-09
8.45692e-10
5.0668e-10
2.84555e-10
1.4961e-10
7.35423e-11
3.37522e-11
1.44424e-11
5.7535e-12
2.13101e-12
7.32898e-13
2.33778e-13
6.90955e-14
1.89073e-14
4.78763e-15
1.12157e-15
2.43065e-16
4.87443e-17
9.04948e-18
1.55649e-18
2.48246e-19
3.68382e-20
5.2594e-21
7.63467e-22
1.15748e-22
1.83628e-23
3.05307e-24
5.32577e-25
9.75447e-26
1.87687e-26
3.79484e-27
8.06432e-28
1.80114e-28
4.2272e-29
1.04222e-29
2.69841e-30
7.33302e-31
2.09029e-31
6.24668e-32
1.95553e-32
6.40734e-33
2.19533e-33
7.85871e-34
2.93645e-34
1.14413e-34
4.64284e-35
1.96003e-35
8.59888e-36
3.9158e-36
1.84662e-36
9.10856e-37
4.19935e-37
4.07984e-09
7.88075e-09
8.86463e-09
8.4219e-09
7.29506e-09
5.89232e-09
4.46881e-09
3.18795e-09
2.13915e-09
1.34932e-09
7.99387e-10
4.44363e-10
2.31512e-10
1.12907e-10
5.14743e-11
2.19049e-11
8.68797e-12
3.20679e-12
1.09997e-12
3.50172e-13
1.03348e-13
2.82507e-14
7.14823e-15
1.67367e-15
3.62565e-16
7.26829e-17
1.34891e-17
2.31922e-18
3.69733e-19
5.48369e-20
7.82381e-21
1.13479e-21
1.71882e-22
2.724e-23
4.52406e-24
7.88264e-25
1.44202e-25
2.77116e-26
5.59586e-27
1.18761e-27
2.64894e-28
6.20848e-29
1.52857e-29
3.95204e-30
1.07244e-30
3.05256e-31
9.1089e-32
2.8473e-32
9.3152e-33
3.18681e-33
1.13906e-33
4.24966e-34
1.65327e-34
6.6987e-35
2.82364e-35
1.2369e-35
5.62424e-36
2.64836e-36
1.30442e-36
6.0036e-37
7.69546e-09
1.35621e-08
1.46361e-08
1.35722e-08
1.15546e-08
9.19705e-09
6.88048e-09
4.84417e-09
3.20973e-09
2.00078e-09
1.17262e-09
6.45659e-10
3.33659e-10
1.61631e-10
7.32914e-11
3.10602e-11
1.22816e-11
4.52358e-12
1.54951e-12
4.92897e-13
1.45421e-13
3.97501e-14
1.00595e-14
2.35595e-15
5.10526e-16
1.02374e-16
1.9004e-17
3.26791e-18
5.20998e-19
7.72657e-20
1.10212e-20
1.59788e-21
2.41896e-22
3.83115e-23
6.35826e-24
1.10698e-24
2.02336e-25
3.88486e-26
7.83739e-27
1.66169e-27
3.70256e-28
8.66862e-29
2.1319e-29
5.50557e-30
1.49223e-30
4.24222e-31
1.26428e-31
3.94682e-32
1.28952e-32
4.40556e-33
1.57249e-33
5.85849e-34
2.27592e-34
9.20831e-35
3.87589e-35
1.69537e-35
7.69775e-36
3.6195e-36
1.78018e-36
8.17919e-37
1.36204e-08
2.17497e-08
2.25385e-08
2.04257e-08
1.71014e-08
1.34152e-08
9.89847e-09
6.87711e-09
4.50016e-09
2.77345e-09
1.60935e-09
8.78719e-10
4.51032e-10
2.17351e-10
9.81831e-11
4.15019e-11
1.6385e-11
6.03066e-12
2.06559e-12
6.57324e-13
1.9407e-13
5.30964e-14
1.34505e-14
3.15328e-15
6.8396e-16
1.37272e-16
2.55012e-17
4.38782e-18
6.9987e-19
1.03825e-19
1.48116e-20
2.14732e-21
3.25012e-22
5.14603e-23
8.53718e-24
1.48566e-24
2.7141e-25
5.20806e-26
1.05002e-26
2.22473e-27
4.95345e-28
1.15881e-28
2.84748e-29
7.34691e-30
1.98941e-30
5.64994e-31
1.68204e-31
5.24514e-32
1.71173e-32
5.841e-33
2.08226e-33
7.74778e-34
3.00593e-34
1.21456e-34
5.10523e-35
2.23001e-35
1.0111e-35
4.74753e-36
2.33169e-36
1.06944e-36
2.26294e-08
3.26287e-08
3.25334e-08
2.88574e-08
2.37727e-08
1.83778e-08
1.33718e-08
9.16809e-09
5.92743e-09
3.61503e-09
2.07964e-09
1.12785e-09
5.7603e-10
2.76649e-10
1.24717e-10
5.26702e-11
2.0794e-11
7.65853e-12
2.62619e-12
8.36955e-13
2.47517e-13
6.78367e-14
1.72141e-14
4.04222e-15
8.78096e-16
1.76472e-16
3.2822e-17
5.65303e-18
9.02404e-19
1.33955e-19
1.91182e-20
2.77235e-21
4.19658e-22
6.64452e-23
1.10221e-23
1.91775e-24
3.50263e-25
6.71917e-26
1.3542e-26
2.86803e-27
6.38279e-28
1.4924e-28
3.66505e-29
9.45024e-30
2.55713e-30
7.25665e-31
2.15856e-31
6.72505e-32
2.19259e-32
7.47423e-33
2.66163e-33
9.89235e-34
3.83345e-34
1.54703e-34
6.49454e-35
2.8332e-35
1.28289e-35
6.0155e-36
2.95042e-36
1.35086e-36
3.52896e-08
4.59614e-08
4.42288e-08
3.84548e-08
3.11786e-08
2.37478e-08
1.7037e-08
1.15318e-08
7.37356e-09
4.4571e-09
2.54695e-09
1.3749e-09
7.00213e-10
3.35831e-10
1.51368e-10
6.3972e-11
2.52916e-11
9.33272e-12
3.2074e-12
1.02464e-12
3.03765e-13
8.34537e-14
2.12258e-14
4.99489e-15
1.08715e-15
2.18859e-16
4.07664e-17
7.03021e-18
1.12344e-18
1.6691e-19
2.38374e-20
3.45831e-21
5.23668e-22
8.29314e-23
1.37587e-23
2.39406e-24
4.37263e-25
8.38772e-26
1.69032e-26
3.57937e-27
7.96427e-28
1.8617e-28
4.57053e-29
1.17805e-29
3.18627e-30
9.03743e-31
2.68672e-31
8.36512e-32
2.72535e-32
9.28304e-33
3.30295e-33
1.22646e-33
4.7481e-34
1.91415e-34
8.02695e-35
3.49769e-35
1.58189e-35
7.40835e-36
3.62902e-36
1.65875e-36
5.16512e-08
6.10287e-08
5.68888e-08
4.85404e-08
3.87297e-08
2.9055e-08
2.05566e-08
1.37504e-08
8.71153e-09
5.23153e-09
2.97718e-09
1.60372e-09
8.16276e-10
3.91734e-10
1.76829e-10
7.48931e-11
2.96867e-11
1.09864e-11
3.78735e-12
1.21368e-12
3.60912e-13
9.94445e-14
2.53622e-14
5.9832e-15
1.30518e-15
2.63273e-16
4.91238e-17
8.48391e-18
1.35743e-18
2.01882e-19
2.88558e-20
4.18903e-21
6.34633e-22
1.00545e-22
1.66862e-23
2.90423e-24
5.30558e-25
1.01792e-25
2.05163e-26
4.34492e-27
9.66827e-28
2.26006e-28
5.54836e-29
1.42997e-29
3.86709e-30
1.09663e-30
3.25926e-31
1.01443e-31
3.30366e-32
1.12475e-32
3.99969e-33
1.48425e-33
5.74208e-34
2.3131e-34
9.6918e-35
4.21934e-35
1.90643e-35
8.91914e-36
4.36449e-36
1.99188e-36
7.09496e-08
7.66852e-08
6.95048e-08
5.82298e-08
4.56959e-08
3.37604e-08
2.35805e-08
1.56226e-08
9.83609e-09
5.88704e-09
3.3463e-09
1.80326e-09
9.1921e-10
4.42139e-10
2.00152e-10
8.50479e-11
3.38312e-11
1.25663e-11
4.3481e-12
1.39847e-12
4.17321e-13
1.15367e-13
2.95125e-14
6.98148e-15
1.52669e-15
3.08619e-16
5.76924e-17
9.97966e-18
1.59891e-18
2.38066e-19
3.40593e-20
4.94811e-21
7.50094e-22
1.18899e-22
1.97414e-23
3.43743e-24
6.28215e-25
1.20573e-25
2.43104e-26
5.15018e-27
1.14638e-27
2.68058e-28
6.5825e-29
1.6969e-29
4.58983e-30
1.30177e-30
3.86935e-31
1.20437e-31
3.92211e-32
1.33518e-32
4.74725e-33
1.76125e-33
6.81163e-34
2.7429e-34
1.14874e-34
4.99841e-35
2.25707e-35
1.05525e-35
5.16005e-36
2.35214e-36
9.14818e-08
9.15213e-08
8.08951e-08
6.6505e-08
5.12935e-08
3.73555e-08
2.58311e-08
1.70176e-08
1.06914e-08
6.40016e-09
3.64381e-09
1.96845e-09
1.00649e-09
4.85819e-10
2.20771e-10
9.41919e-11
3.76264e-11
1.40353e-11
4.87664e-12
1.57477e-12
4.71718e-13
1.30865e-13
3.35853e-14
7.96801e-15
1.74692e-15
3.53934e-16
6.62925e-17
1.14864e-17
1.84291e-18
2.74722e-19
3.93421e-20
5.72019e-21
8.67726e-22
1.37628e-22
2.28638e-23
3.98324e-24
7.28347e-25
1.39865e-25
2.82154e-26
5.98075e-27
1.332e-27
3.11639e-28
7.65704e-29
1.97501e-29
5.34505e-30
1.51677e-30
4.51068e-31
1.40464e-31
4.57628e-32
1.55847e-32
5.54292e-33
2.05699e-33
7.95695e-34
3.20451e-34
1.34214e-34
5.83984e-35
2.63678e-35
1.23257e-35
6.02577e-36
2.74495e-36
1.10899e-07
1.0401e-07
8.97325e-08
7.22646e-08
5.48138e-08
3.95052e-08
2.71996e-08
1.79176e-08
1.12813e-08
6.77442e-09
3.87049e-09
2.09883e-09
1.07751e-09
5.22343e-10
2.38444e-10
1.02206e-10
4.10192e-11
1.53715e-11
5.36474e-12
1.73973e-12
5.23195e-13
1.45675e-13
3.75103e-14
8.92563e-15
1.96201e-15
3.98422e-16
7.47728e-17
1.29775e-17
2.08514e-18
3.11203e-19
4.46109e-20
6.49158e-21
9.85441e-22
1.56398e-22
2.59978e-23
4.53193e-24
8.29183e-25
1.59331e-25
3.21639e-26
6.8226e-27
1.52065e-27
3.56062e-28
8.75586e-29
2.26041e-29
6.12292e-30
1.7391e-30
5.17663e-31
1.61351e-31
5.26156e-32
1.79344e-32
6.38416e-33
2.37115e-33
9.17943e-34
3.69957e-34
1.55055e-34
6.75087e-35
3.04984e-35
1.42636e-35
6.97621e-36
3.17839e-36
1.1917e-07
1.12524e-07
9.44111e-08
7.44732e-08
5.59259e-08
4.02653e-08
2.78278e-08
1.84265e-08
1.16596e-08
7.03354e-09
4.03622e-09
2.1986e-09
1.13411e-09
5.52531e-10
2.5352e-10
1.09229e-10
4.40605e-11
1.65924e-11
5.818e-12
1.89503e-12
5.72228e-13
1.59924e-13
4.13184e-14
9.86147e-15
2.1735e-15
4.42393e-16
8.31911e-17
1.44632e-17
2.32718e-18
3.47747e-19
4.98994e-20
7.26714e-21
1.10396e-21
1.7532e-22
2.91609e-23
5.08644e-24
9.31231e-25
1.79062e-25
3.61737e-26
7.67934e-27
1.71311e-27
4.01507e-28
9.88352e-29
2.55432e-29
6.92703e-30
1.96988e-30
5.87093e-31
1.83229e-31
5.98289e-32
2.04205e-32
7.27895e-33
2.70713e-33
1.04941e-33
4.23502e-34
1.77726e-34
7.74769e-35
3.50445e-35
1.64089e-35
8.03449e-36
3.6649e-36
1.18535e-07
1.10445e-07
9.1539e-08
7.24599e-08
5.50377e-08
4.01093e-08
2.79841e-08
1.86544e-08
1.18644e-08
7.19083e-09
4.14686e-09
2.27088e-09
1.17798e-09
5.77208e-10
2.6637e-10
1.15416e-10
4.68112e-11
1.77207e-11
6.24433e-12
2.04327e-12
6.19618e-13
1.7384e-13
4.50707e-14
1.07905e-14
2.38478e-15
4.86555e-16
9.16837e-17
1.59675e-17
2.57302e-18
3.84956e-19
5.52945e-20
8.05953e-21
1.22519e-21
1.94694e-22
3.24024e-23
5.65512e-24
1.03597e-24
1.9933e-25
4.02967e-26
8.5613e-27
1.9115e-27
4.48433e-28
1.10502e-28
2.85906e-29
7.76292e-30
2.21046e-30
6.597e-31
2.06185e-31
6.74256e-32
2.30489e-32
8.22884e-33
3.06532e-33
1.1902e-33
4.81099e-34
2.02226e-34
8.83e-35
4.00039e-35
1.87606e-35
9.20011e-36
4.20407e-36
1.15817e-07
1.07155e-07
8.91239e-08
7.11667e-08
5.44469e-08
3.98447e-08
2.78726e-08
1.86336e-08
1.18991e-08
7.24943e-09
4.2057e-09
2.31774e-09
1.21002e-09
5.96684e-10
2.77068e-10
1.20772e-10
4.92663e-11
1.87521e-11
6.64175e-12
2.1837e-12
6.65106e-13
1.87345e-13
4.87463e-14
1.17077e-14
2.59473e-15
5.30679e-16
1.00208e-16
1.74832e-17
2.82148e-18
4.22657e-19
6.07721e-20
8.86527e-21
1.34861e-21
2.14435e-22
3.57073e-23
6.23522e-24
1.14285e-24
2.20022e-25
4.45076e-26
9.46251e-27
2.11436e-27
4.96452e-28
1.22452e-28
3.17161e-29
8.62148e-30
2.45799e-30
7.34556e-31
2.29907e-31
7.52952e-32
2.57791e-32
9.21845e-33
3.43967e-33
1.33781e-33
5.41701e-34
2.28097e-34
9.97704e-35
4.52797e-35
2.12717e-35
1.04496e-35
4.7847e-36
1.13935e-07
1.04606e-07
8.65123e-08
6.89251e-08
5.27312e-08
3.86843e-08
2.71936e-08
1.83005e-08
1.17732e-08
7.22656e-09
4.22286e-09
2.3434e-09
1.23164e-09
6.11317e-10
2.85672e-10
1.25292e-10
5.14126e-11
1.9679e-11
7.00678e-12
2.31495e-12
7.08234e-13
2.00301e-13
5.23063e-14
1.26031e-14
2.80108e-15
5.7429e-16
1.08672e-16
1.8994e-17
3.06994e-18
4.60456e-19
6.62751e-20
9.67605e-21
1.47294e-21
2.34341e-22
3.9042e-23
6.8208e-24
1.25078e-24
2.40919e-25
4.87608e-26
1.03729e-26
2.31932e-27
5.44984e-28
1.34535e-28
3.48781e-29
9.49079e-30
2.70888e-30
8.1052e-31
2.54015e-31
8.33066e-32
2.8564e-32
1.023e-32
3.82321e-33
1.48944e-33
6.04115e-34
2.54815e-34
1.11652e-34
5.0761e-35
2.38888e-35
1.17558e-35
5.39404e-36
1.12396e-07
1.02341e-07
8.39242e-08
6.66294e-08
5.10038e-08
3.75429e-08
2.6519e-08
1.79428e-08
1.16073e-08
7.16533e-09
4.21187e-09
2.35174e-09
1.24392e-09
6.21413e-10
2.92262e-10
1.28988e-10
5.32492e-11
2.04985e-11
7.33748e-12
2.43614e-12
7.48657e-13
2.12592e-13
5.57173e-14
1.34681e-14
3.00177e-15
6.16941e-16
1.16989e-16
2.04843e-17
3.3158e-18
4.97958e-19
7.17465e-20
1.04835e-20
1.59692e-21
2.54208e-22
4.23723e-23
7.40587e-24
1.35864e-24
2.61806e-25
5.30121e-26
1.12829e-26
2.52418e-27
5.93491e-28
1.46612e-28
3.80393e-29
1.03602e-29
2.95991e-30
8.86582e-31
2.78176e-31
9.13448e-32
3.13618e-32
1.12479e-32
4.20982e-33
1.64257e-33
6.67284e-34
2.81918e-34
1.23733e-34
5.63484e-35
2.65634e-35
1.30944e-35
6.02052e-36
1.11185e-07
1.00458e-07
8.16279e-08
6.4471e-08
4.92615e-08
3.62846e-08
2.56935e-08
1.74512e-08
1.13452e-08
7.04415e-09
4.16705e-09
2.34232e-09
1.24739e-09
6.27368e-10
2.97016e-10
1.31923e-10
5.47912e-11
2.12125e-11
7.63339e-12
2.54677e-12
7.86136e-13
2.24129e-13
5.89515e-14
1.4295e-14
3.19491e-15
6.58219e-16
1.25075e-16
2.19389e-17
3.55654e-18
5.34775e-19
7.71293e-20
1.12792e-20
1.71926e-21
2.73831e-22
4.56642e-23
7.98448e-24
1.46534e-24
2.8247e-25
5.7218e-26
1.2183e-26
2.7268e-27
6.41458e-28
1.58554e-28
4.11647e-29
1.12197e-29
3.20813e-30
9.61813e-31
3.02085e-31
9.93044e-32
3.41348e-32
1.22578e-32
4.59389e-33
1.79493e-33
7.30232e-34
3.08976e-34
1.35817e-34
6.19489e-35
2.92502e-35
1.44422e-35
6.6531e-36
1.10162e-07
9.88446e-08
7.95894e-08
6.24798e-08
4.75931e-08
3.50396e-08
2.48536e-08
1.69369e-08
1.10606e-08
6.90411e-09
4.10817e-09
2.32351e-09
1.24523e-09
6.30288e-10
3.00285e-10
1.34195e-10
5.60637e-11
2.1826e-11
7.89495e-12
2.64662e-12
8.20512e-13
2.34846e-13
6.19861e-14
1.50772e-14
3.37885e-15
6.97749e-16
1.32855e-16
2.33435e-17
3.78976e-18
5.70534e-19
8.23683e-20
1.20549e-20
1.83869e-21
2.93008e-22
4.88837e-23
8.55067e-24
1.56978e-24
3.02702e-25
6.13359e-26
1.30642e-26
2.9251e-27
6.88392e-28
1.70235e-28
4.42209e-29
1.206e-29
3.45078e-30
1.03536e-30
3.25462e-31
1.07089e-31
3.68482e-32
1.32467e-32
4.97032e-33
1.94441e-33
7.92074e-34
3.35595e-34
1.47725e-34
6.74774e-35
3.19074e-35
1.57777e-35
7.28158e-36
1.09284e-07
9.74576e-08
7.78068e-08
6.06977e-08
4.60607e-08
3.38632e-08
2.40344e-08
1.64163e-08
1.07592e-08
6.74673e-09
4.03577e-09
2.29574e-09
1.23781e-09
6.30407e-10
3.02189e-10
1.35857e-10
5.7084e-11
2.23438e-11
8.12302e-12
2.73571e-12
8.51704e-13
2.44697e-13
6.48041e-14
1.58096e-14
3.5522e-15
7.35206e-16
1.40259e-16
2.46854e-17
4.01322e-18
6.04885e-19
8.74116e-20
1.2803e-20
1.95401e-21
3.11545e-22
5.19982e-23
9.09874e-24
1.67092e-24
3.22297e-25
6.53245e-26
1.39177e-26
3.11712e-27
7.33824e-28
1.81538e-28
4.71771e-29
1.28725e-29
3.68532e-30
1.10643e-30
3.48048e-31
1.14611e-31
3.94705e-32
1.42027e-32
5.33442e-33
2.0891e-33
8.51989e-34
3.61415e-34
1.59289e-34
7.28542e-35
3.44957e-35
1.70808e-35
7.89622e-36
1.08552e-07
9.62835e-08
7.62727e-08
5.91352e-08
4.46883e-08
3.27851e-08
2.32647e-08
1.59139e-08
1.04596e-08
6.58455e-09
3.95735e-09
2.26303e-09
1.22705e-09
6.28546e-10
3.03047e-10
1.37017e-10
5.78866e-11
2.27751e-11
8.3197e-12
2.81434e-12
8.79708e-13
2.53656e-13
6.73924e-14
1.64876e-14
3.71373e-15
7.70289e-16
1.47224e-16
2.59521e-17
4.22479e-18
6.37486e-19
9.22075e-20
1.35155e-20
2.064e-21
3.29243e-22
5.49746e-23
9.62284e-24
1.76768e-24
3.4105e-25
6.91419e-26
1.47345e-26
3.30086e-27
7.77283e-28
1.92345e-28
5.00025e-29
1.36487e-29
3.90927e-30
1.17425e-30
3.69597e-31
1.21786e-31
4.19715e-32
1.51146e-32
5.68179e-33
2.22721e-33
9.09213e-34
3.86094e-34
1.70354e-34
7.80046e-35
3.69783e-35
1.83326e-35
8.48782e-36
1.07929e-07
9.52806e-08
7.49523e-08
5.77746e-08
4.34752e-08
3.18153e-08
2.25589e-08
1.54433e-08
1.01721e-08
6.42439e-09
3.87698e-09
2.22757e-09
1.21404e-09
6.25217e-10
3.03075e-10
1.37761e-10
5.85003e-11
2.31287e-11
8.48722e-12
2.88299e-12
9.04579e-13
2.61714e-13
6.97436e-14
1.71083e-14
3.8625e-15
8.02764e-16
1.53697e-16
2.71333e-17
4.42262e-18
6.6804e-19
9.67108e-20
1.41855e-20
2.16757e-21
3.45928e-22
5.77829e-23
1.01177e-23
1.85909e-24
3.58772e-25
7.27502e-26
1.55065e-26
3.47451e-27
8.18345e-28
2.02553e-28
5.26697e-29
1.4381e-29
4.12044e-30
1.23818e-30
3.89895e-31
1.28541e-31
4.43254e-32
1.59726e-32
6.00867e-33
2.35718e-33
9.63084e-34
4.0934e-34
1.80784e-34
8.28637e-35
3.93231e-35
1.95163e-35
9.04827e-36
1.074e-07
9.4425e-08
7.38215e-08
5.66004e-08
4.2417e-08
3.09582e-08
2.19254e-08
1.50137e-08
9.90444e-09
6.27194e-09
3.79832e-09
2.19149e-09
1.19989e-09
6.20947e-10
3.02501e-10
1.38177e-10
5.8956e-11
2.34141e-11
8.62816e-12
2.94222e-12
9.2641e-13
2.68876e-13
7.18532e-14
1.76693e-14
3.99775e-15
8.32425e-16
1.59632e-16
2.82197e-17
4.60503e-18
6.96275e-19
1.0088e-19
1.48068e-20
2.26371e-21
3.61432e-22
6.03946e-23
1.05782e-23
1.94422e-24
3.75281e-25
7.61124e-26
1.6226e-26
3.63632e-27
8.56601e-28
2.12059e-28
5.51526e-29
1.50623e-29