/*--------------------------------*- C++ -*----------------------------------*\
| =========                 |                                                 |
| \\      /  F ield         | OpenFOAM: The Open Source CFD Toolbox           |
|  \\    /   O peration     | Version:  2406                                  |
|   \\  /    A nd           | Website:  www.openfoam.com                      |
|    \\/     M anipulation  |                                                 |
\*---------------------------------------------------------------------------*/
FoamFile
{
    version     2.0;
    format      ascii;
    arch        "LSB;label=32;scalar=64";
    class       volScalarField;
    location    "2e-07";
    object      He2_plus;
}
// * * * * * * * * * * * * * * * * * * * * * * * * * * * * * * * * * * * * * //

dimensions      [0 -3 0 0 0 0 0];

internalField   nonuniform List<scalar> 
5880
(
7.22801e-24
2.14336e-23
3.43254e-23
4.44427e-23
5.06838e-23
5.25841e-23
5.03997e-23
4.49859e-23
3.75466e-23
2.93504e-23
2.14895e-23
1.47228e-23
9.42302e-24
5.62167e-24
3.11768e-24
1.60211e-24
7.60131e-25
3.31751e-25
1.32735e-25
4.85562e-26
1.62137e-26
4.93942e-27
1.37391e-27
3.49548e-28
8.15485e-29
1.75e-29
3.46586e-30
6.35671e-31
1.08313e-31
1.72449e-32
2.65685e-33
4.18063e-34
6.89022e-35
1.19106e-35
2.16059e-36
4.11418e-37
8.2246e-38
1.72614e-38
3.80282e-39
8.79319e-40
2.13339e-40
5.42888e-41
1.44833e-41
4.0488e-42
1.1853e-42
3.63135e-43
1.16354e-43
3.89595e-44
1.36202e-44
4.96704e-45
1.88789e-45
7.4717e-46
3.07607e-46
1.31586e-46
5.84231e-47
2.68948e-47
1.28241e-47
6.31627e-48
3.25317e-48
1.55896e-48
3.40592e-22
1.00824e-21
1.60883e-21
2.07183e-21
2.34655e-21
2.41499e-21
2.29408e-21
2.02802e-21
1.67536e-21
1.29543e-21
9.37483e-22
6.34302e-22
4.00545e-22
2.35526e-22
1.28613e-22
6.50182e-23
3.03248e-23
1.30032e-23
5.10968e-24
1.83533e-24
6.01627e-25
1.79887e-25
4.90939e-26
1.22501e-26
2.80144e-27
5.88919e-28
1.14175e-28
2.0484e-29
3.41177e-30
5.30596e-31
7.98258e-32
1.22717e-32
1.97774e-33
3.34616e-34
5.94695e-35
1.11058e-35
2.17951e-36
4.49483e-37
9.73958e-38
2.21697e-38
5.29943e-39
1.32971e-39
3.50052e-40
9.66319e-41
2.7954e-41
8.46803e-42
2.68447e-42
8.89821e-43
3.08119e-43
1.11354e-43
4.1963e-44
1.64738e-44
6.73046e-45
2.85833e-45
1.26041e-45
5.7648e-46
2.73198e-46
1.33789e-46
6.85141e-47
3.26817e-47
1.03053e-20
3.04511e-20
4.84091e-20
6.19999e-20
6.97428e-20
7.12214e-20
6.7091e-20
5.87917e-20
4.81286e-20
3.68652e-20
2.64186e-20
1.76921e-20
1.10519e-20
6.42519e-21
3.46712e-21
1.73136e-21
7.97514e-22
3.37751e-22
1.31116e-22
4.65449e-23
1.50866e-23
4.46251e-24
1.20529e-24
2.97715e-25
6.74023e-26
1.40263e-26
2.69119e-27
4.77646e-28
7.86646e-29
1.20896e-29
1.79656e-30
2.72794e-31
4.34327e-32
7.26136e-33
1.27564e-33
2.35562e-34
4.57307e-35
9.33337e-36
2.0023e-36
4.51438e-37
1.06931e-37
2.65984e-38
6.94434e-39
1.90195e-39
5.46101e-40
1.64258e-40
5.17228e-41
1.70357e-41
5.86354e-42
2.10705e-42
7.89774e-43
3.08481e-43
1.25432e-43
5.303e-44
2.32854e-44
1.06079e-44
5.00835e-45
2.44418e-45
1.24723e-45
5.93605e-46
2.24043e-19
6.60717e-19
1.0461e-18
1.332e-18
1.4877e-18
1.50723e-18
1.40798e-18
1.22325e-18
9.92667e-19
7.53615e-19
5.35158e-19
3.55031e-19
2.19627e-19
1.26399e-19
6.75004e-20
3.33535e-20
1.52031e-20
6.37322e-21
2.45029e-21
8.62061e-22
2.77147e-22
8.1377e-23
2.1834e-23
5.36063e-24
1.20681e-24
2.49769e-25
4.76617e-26
8.41155e-27
1.37704e-27
2.10259e-28
3.10269e-29
4.67702e-30
7.3915e-31
1.22653e-31
2.1386e-32
3.91993e-33
7.55439e-34
1.53078e-34
3.26109e-35
7.30264e-36
1.71841e-36
4.24737e-37
1.10214e-37
3.00092e-38
8.56806e-39
2.56329e-39
8.03003e-40
2.63188e-40
9.01651e-41
3.22572e-41
1.204e-41
4.68403e-42
1.8974e-42
7.99326e-43
3.49802e-43
1.5885e-43
7.47737e-44
3.63897e-44
1.85162e-44
8.79635e-45
3.73493e-18
1.09901e-17
1.73224e-17
2.19172e-17
2.42945e-17
2.44109e-17
2.26093e-17
1.94739e-17
1.56667e-17
1.17908e-17
8.29932e-18
5.45653e-18
3.34447e-18
1.90666e-18
1.00846e-18
4.93526e-19
2.22842e-19
9.2578e-20
3.52973e-20
1.23257e-20
3.9369e-21
1.14959e-21
3.07023e-22
7.50905e-23
1.68497e-23
3.47728e-24
6.61731e-25
1.16459e-25
1.90076e-26
2.89223e-27
4.25104e-28
6.38026e-29
1.00367e-29
1.65736e-30
2.87528e-31
5.24316e-32
1.00522e-32
2.02638e-33
4.29472e-34
9.56859e-35
2.24043e-35
5.51074e-36
1.42322e-36
3.85739e-37
1.09646e-37
3.26626e-38
1.01902e-38
3.32673e-39
1.1354e-39
4.04732e-40
1.50547e-40
5.83771e-41
2.35738e-41
9.9017e-42
4.32107e-42
1.95706e-42
9.18914e-43
4.46158e-43
2.26475e-43
1.07419e-43
4.9699e-17
1.4587e-16
2.28761e-16
2.87432e-16
3.16027e-16
3.14796e-16
2.88998e-16
2.46742e-16
1.96782e-16
1.46817e-16
1.02445e-16
6.67624e-17
4.05551e-17
2.29106e-17
1.2007e-17
5.8227e-18
2.60597e-18
1.07364e-18
4.06254e-19
1.40922e-19
4.47596e-20
1.3011e-20
3.46267e-21
8.44656e-22
1.89165e-22
3.89805e-23
7.40892e-24
1.30234e-24
2.12268e-25
3.22435e-26
4.72872e-27
7.07845e-28
1.11016e-28
1.82711e-29
3.15842e-30
5.73782e-31
1.09578e-31
2.20017e-32
4.64438e-33
1.03062e-33
2.40352e-34
5.88865e-35
1.51494e-35
4.09048e-36
1.15844e-36
3.43853e-37
1.06906e-37
3.47844e-38
1.18337e-38
4.2053e-39
1.55962e-39
6.0306e-40
2.42872e-40
1.01752e-40
4.4296e-41
2.00158e-41
9.37749e-42
4.54369e-42
2.30159e-42
1.09008e-42
5.4246e-16
1.58749e-15
2.47537e-15
3.08637e-15
3.36371e-15
3.31996e-15
3.02005e-15
2.55532e-15
2.01996e-15
1.49395e-15
1.03337e-15
6.67549e-16
4.01926e-16
2.25036e-16
1.16887e-16
5.61863e-17
2.49338e-17
1.01913e-17
3.82875e-18
1.31992e-18
4.17093e-19
1.20758e-19
3.20429e-20
7.80042e-21
1.74468e-21
3.59244e-22
6.82485e-23
1.19921e-23
1.95361e-24
2.96513e-25
4.34305e-26
6.48999e-27
1.01572e-27
1.66756e-28
2.87467e-29
5.20677e-30
9.91229e-31
1.98375e-31
4.17353e-32
9.22995e-33
2.14522e-33
5.23803e-34
1.34305e-34
3.61437e-35
1.02029e-35
3.01893e-36
9.35722e-37
3.03554e-37
1.02972e-37
3.64916e-38
1.34976e-38
5.2058e-39
2.09143e-39
8.74163e-40
3.79705e-40
1.71212e-40
8.00518e-41
3.87143e-41
1.95729e-41
9.25722e-42
4.95389e-15
1.44473e-14
2.23805e-14
2.76664e-14
2.98663e-14
2.91921e-14
2.6302e-14
2.20489e-14
1.72726e-14
1.26616e-14
8.68117e-15
5.55866e-15
3.31729e-15
1.84092e-15
9.47799e-16
4.51674e-16
1.98786e-16
8.06264e-17
3.00811e-17
1.03083e-17
3.2415e-18
9.34929e-19
2.47401e-19
6.01167e-20
1.34316e-20
2.76422e-21
5.25036e-22
9.22474e-23
1.50254e-23
2.27954e-24
3.33599e-25
4.97862e-26
7.77864e-27
1.27442e-27
2.19177e-28
3.95955e-29
7.51701e-30
1.50001e-30
3.14632e-31
6.93693e-32
1.6073e-32
3.91241e-33
1.00007e-33
2.68316e-34
7.55154e-35
2.22785e-35
6.88549e-36
2.22748e-36
7.53569e-37
2.66356e-37
9.82724e-38
3.78106e-38
1.51552e-38
6.32042e-39
2.73954e-39
1.23278e-39
5.75288e-40
2.77714e-40
1.40147e-40
6.61914e-41
3.84308e-14
1.11615e-13
1.71601e-13
2.10106e-13
2.24475e-13
2.17148e-13
1.93704e-13
1.60832e-13
1.24829e-13
9.06791e-14
6.16166e-14
3.91027e-14
2.31282e-14
1.27213e-14
6.49227e-15
3.06752e-15
1.33904e-15
5.38998e-16
1.99727e-16
6.80412e-17
2.12922e-17
6.11792e-18
1.61443e-18
3.91559e-19
8.73846e-20
1.79729e-20
3.41285e-21
5.99547e-22
9.76375e-23
1.48067e-23
2.16513e-24
3.22727e-25
5.0342e-26
8.23168e-27
1.41251e-27
2.54548e-28
4.81965e-29
9.59077e-30
2.00591e-30
4.4096e-31
1.01867e-31
2.47222e-32
6.30056e-33
1.68545e-33
4.72982e-34
1.39142e-34
4.2884e-35
1.38355e-35
4.66832e-36
1.64586e-36
6.05748e-37
2.32511e-37
9.29828e-38
3.86936e-38
1.67364e-38
7.51631e-39
3.50085e-39
1.68696e-39
8.49778e-40
4.00771e-40
2.56366e-13
7.40835e-13
1.129e-12
1.36756e-12
1.44471e-12
1.38228e-12
1.22024e-12
1.00316e-12
7.71217e-13
5.55049e-13
3.73716e-13
2.35017e-13
1.37755e-13
7.50938e-14
3.79879e-14
1.77961e-14
7.70552e-15
3.07832e-15
1.13295e-15
3.83686e-16
1.19476e-16
3.41947e-17
8.99676e-18
2.17744e-18
4.85256e-19
9.97164e-20
1.89244e-20
3.32313e-21
5.40937e-22
8.19804e-23
1.19758e-23
1.78259e-24
2.77582e-25
4.52955e-26
7.75445e-27
1.39389e-27
2.63212e-28
5.22304e-29
1.08924e-29
2.38742e-30
5.49885e-31
1.33054e-31
3.38086e-32
9.01751e-33
2.52321e-33
7.40165e-34
2.27487e-34
7.31944e-35
2.46319e-35
8.66202e-36
3.18015e-36
1.21777e-36
4.85881e-37
2.01749e-37
8.70805e-38
3.90291e-38
1.81435e-38
8.72692e-39
4.38805e-39
2.06635e-39
1.48567e-12
4.26662e-12
6.43558e-12
7.70192e-12
8.03752e-12
7.60107e-12
6.63728e-12
5.40088e-12
4.11159e-12
2.93104e-12
1.95503e-12
1.21808e-12
7.07437e-13
3.82163e-13
1.9162e-13
8.9003e-14
3.82254e-14
1.5156e-14
5.54007e-15
1.86501e-15
5.77808e-16
1.64689e-16
4.31897e-17
1.04274e-17
2.31962e-18
4.76041e-19
9.02546e-20
1.58353e-20
2.57546e-21
3.89921e-22
5.68842e-23
8.45294e-24
1.31366e-24
2.13873e-25
3.65227e-26
6.54747e-27
1.23289e-27
2.43933e-28
5.07191e-29
1.1083e-29
2.54492e-30
6.13909e-31
1.55521e-31
4.13566e-32
1.1538e-32
3.37479e-33
1.0343e-33
3.31872e-34
1.11385e-34
3.90679e-35
1.43073e-35
5.46546e-36
2.1756e-36
9.01342e-37
3.88211e-37
1.73638e-37
8.05607e-38
3.86772e-38
1.94117e-38
9.12641e-39
7.54611e-12
2.15027e-11
3.20439e-11
3.7834e-11
3.89627e-11
3.63958e-11
3.14223e-11
2.52996e-11
1.90665e-11
1.34593e-11
8.89135e-12
5.4873e-12
3.15718e-12
1.68992e-12
8.398e-13
3.86729e-13
1.64747e-13
6.48286e-14
2.35349e-14
7.87474e-15
2.42696e-15
6.88717e-16
1.79973e-16
4.33278e-17
9.61694e-18
1.9701e-18
3.72965e-19
6.53495e-20
1.06143e-20
1.60466e-21
2.33692e-22
3.46556e-23
5.37333e-24
8.7259e-25
1.48603e-25
2.65634e-26
4.98691e-27
9.83654e-28
2.03885e-28
4.44123e-29
1.0166e-29
2.44464e-30
6.17374e-31
1.63671e-31
4.55245e-32
1.32763e-32
4.05718e-33
1.29815e-33
4.34508e-34
1.52e-34
5.55227e-35
2.11576e-35
8.40213e-36
3.47303e-36
1.49258e-36
6.66197e-37
3.08468e-37
1.47814e-37
7.40467e-38
3.47546e-38
3.38672e-11
9.55465e-11
1.40375e-10
1.63251e-10
1.65734e-10
1.5282e-10
1.30393e-10
1.03844e-10
7.74504e-11
5.4124e-11
3.54025e-11
2.16367e-11
1.23304e-11
6.53865e-12
3.22014e-12
1.47012e-12
6.21184e-13
2.42592e-13
8.74623e-14
2.90847e-14
8.91561e-15
2.51841e-15
6.55556e-16
1.57316e-16
3.48244e-17
7.11801e-18
1.34488e-18
2.35214e-19
3.81357e-20
5.75437e-21
8.36246e-22
1.23715e-22
1.91318e-23
3.09813e-24
5.26051e-25
9.37445e-26
1.75436e-26
3.44932e-27
7.12634e-28
1.54729e-28
3.53028e-29
8.46208e-30
2.13024e-30
5.62978e-31
1.5611e-31
4.539e-32
1.38303e-32
4.41262e-33
1.47287e-33
5.13861e-34
1.87218e-34
7.11639e-35
2.81927e-35
1.16266e-35
4.98558e-36
2.22054e-36
1.02608e-36
4.90733e-37
2.45362e-37
1.14962e-37
1.35325e-10
3.76878e-10
5.44508e-10
6.22665e-10
6.22521e-10
5.66272e-10
4.77318e-10
3.75882e-10
2.77362e-10
1.91824e-10
1.24201e-10
7.51524e-11
4.24117e-11
2.22782e-11
1.08719e-11
4.92056e-12
2.06223e-12
7.99293e-13
2.86184e-13
9.4578e-14
2.8833e-14
8.10564e-15
2.10129e-15
5.02482e-16
1.10897e-16
2.26072e-17
4.26125e-18
7.43615e-19
1.20299e-19
1.8111e-20
2.6255e-21
3.87377e-22
5.97343e-23
9.64398e-24
1.63238e-24
2.89962e-25
5.4087e-26
1.05991e-26
2.18254e-27
4.72314e-28
1.07409e-28
2.56624e-29
6.43956e-30
1.69649e-30
4.68978e-31
1.35948e-31
4.13018e-32
1.31399e-32
4.37378e-33
1.52185e-33
5.53027e-34
2.09687e-34
8.28708e-35
3.40964e-35
1.45883e-35
6.48366e-36
2.98989e-36
1.42716e-36
7.12208e-37
3.33095e-37
4.84942e-10
1.32795e-09
1.88128e-09
2.11162e-09
2.07699e-09
1.86283e-09
1.55065e-09
1.20709e-09
8.80965e-10
6.02805e-10
3.86242e-10
2.3133e-10
1.29256e-10
6.72468e-11
3.25168e-11
1.45895e-11
6.06503e-12
2.33311e-12
8.29643e-13
2.72487e-13
8.26134e-14
2.31121e-14
5.96613e-15
1.42141e-15
3.12683e-16
6.35582e-17
1.19483e-17
2.07981e-18
3.35634e-19
5.04029e-20
7.28723e-21
1.07212e-21
1.64827e-22
2.6528e-23
4.47587e-24
7.92462e-25
1.47332e-25
2.87763e-26
5.90597e-27
1.27389e-27
2.88753e-28
6.87679e-29
1.72017e-29
4.51772e-30
1.24509e-30
3.59859e-31
1.09012e-31
3.45841e-32
1.14804e-32
3.98404e-33
1.44408e-33
5.46189e-34
2.15348e-34
8.84006e-35
3.77395e-35
1.67377e-35
7.70281e-36
3.66969e-36
1.82786e-36
8.53316e-37
1.56992e-09
4.20485e-09
5.82214e-09
6.40308e-09
6.19081e-09
5.47217e-09
4.497e-09
3.45948e-09
2.4965e-09
1.68961e-09
1.07106e-09
6.34808e-10
3.51126e-10
1.80912e-10
8.66768e-11
3.85548e-11
1.58992e-11
6.07107e-12
2.14436e-12
7.00032e-13
2.11091e-13
5.87726e-14
1.51074e-14
3.58587e-15
7.86209e-16
1.59331e-16
2.98699e-17
5.18569e-18
8.34696e-19
1.25022e-19
1.80263e-20
2.64443e-21
4.05333e-22
6.50345e-23
1.09382e-23
1.93044e-24
3.57749e-25
6.96498e-26
1.4249e-26
3.0637e-27
6.92273e-28
1.64359e-28
4.09881e-29
1.07327e-29
2.94932e-30
8.49991e-31
2.56773e-31
8.12413e-32
2.68978e-32
9.31058e-33
3.36644e-33
1.27025e-33
4.99675e-34
2.04662e-34
8.71869e-35
3.85885e-35
1.77237e-35
8.42784e-36
4.19016e-36
1.95256e-36
4.62366e-09
1.20307e-08
1.62237e-08
1.74533e-08
1.65755e-08
1.44347e-08
1.17082e-08
8.89886e-09
6.34799e-09
4.24825e-09
2.6636e-09
1.56197e-09
8.55148e-10
4.36325e-10
2.07138e-10
9.13536e-11
3.73774e-11
1.41704e-11
4.97279e-12
1.61397e-12
4.84175e-13
1.34189e-13
3.43538e-14
8.12491e-15
1.77569e-15
3.58811e-16
6.70849e-17
1.16167e-17
1.86514e-18
2.78659e-19
4.00725e-20
5.86227e-21
8.95988e-22
1.43337e-22
2.40359e-23
4.22926e-24
7.81403e-25
1.51673e-25
3.09365e-26
6.63193e-27
1.49416e-27
3.53717e-28
8.79597e-29
2.2968e-29
6.2943e-30
1.80916e-30
5.45103e-31
1.72028e-31
5.68151e-32
1.96191e-32
7.07717e-33
2.66437e-33
1.04579e-33
4.2744e-34
1.8172e-34
8.02703e-35
3.67984e-35
1.74663e-35
8.66857e-36
4.03218e-36
1.24746e-08
3.12667e-08
4.09153e-08
4.29932e-08
4.00868e-08
3.43861e-08
2.75241e-08
2.0664e-08
1.45675e-08
9.63754e-09
5.9754e-09
3.46639e-09
1.87831e-09
9.49108e-10
4.46516e-10
1.95295e-10
7.9303e-11
2.9861e-11
1.04155e-11
3.36225e-12
1.00384e-12
2.77051e-13
7.06664e-14
1.66586e-14
3.63012e-15
7.3159e-16
1.36445e-16
2.3572e-17
3.77599e-18
5.6285e-19
8.07465e-20
1.17828e-20
1.79619e-21
2.86582e-22
4.79268e-23
8.41003e-24
1.5496e-24
2.99963e-25
6.10172e-26
1.30453e-26
2.93126e-27
6.92104e-28
1.71662e-28
4.47104e-29
1.22222e-29
3.5044e-30
1.05335e-30
3.31648e-31
1.09282e-31
3.76525e-32
1.35529e-32
5.09156e-33
1.99439e-33
8.13541e-34
3.45201e-34
1.52201e-34
6.96482e-35
3.30013e-35
1.6351e-35
7.59231e-36
3.10371e-08
7.41837e-08
9.38661e-08
9.62324e-08
8.80694e-08
7.44077e-08
5.8768e-08
4.35727e-08
3.03497e-08
1.98447e-08
1.2165e-08
6.98072e-09
3.74392e-09
1.87378e-09
8.73835e-10
3.7917e-10
1.52879e-10
5.72048e-11
1.98431e-11
6.37488e-12
1.89536e-12
5.21207e-13
1.32523e-13
3.11541e-14
6.77218e-15
1.36178e-15
2.53455e-16
4.37e-17
6.98676e-18
1.03942e-18
1.48809e-19
2.16676e-20
3.29564e-21
5.24606e-22
8.75272e-23
1.53226e-23
2.81657e-24
5.43917e-25
1.10379e-25
2.35429e-26
5.27767e-27
1.24323e-27
3.07651e-28
7.9948e-29
2.1806e-29
6.2386e-30
1.87114e-30
5.87881e-31
1.9331e-31
6.64685e-32
2.38774e-32
8.95282e-33
3.50021e-33
1.42514e-33
6.03626e-34
2.65676e-34
1.21369e-34
5.74135e-35
2.84007e-35
1.31648e-35
7.16269e-08
1.61427e-07
1.96871e-07
1.96786e-07
1.76769e-07
1.47106e-07
1.14634e-07
8.39228e-08
5.77423e-08
3.73092e-08
2.26107e-08
1.28348e-08
6.8144e-09
3.37912e-09
1.56278e-09
6.73131e-10
2.69659e-10
1.00342e-10
3.46416e-11
1.10842e-11
3.28429e-12
9.00537e-13
2.28408e-13
5.35813e-14
1.16256e-14
2.33383e-15
4.33696e-16
7.4665e-17
1.19198e-17
1.77061e-18
2.53082e-19
3.67862e-20
5.58494e-21
8.87337e-22
1.47759e-22
2.58159e-23
4.73598e-24
9.12748e-25
1.84855e-25
3.93489e-26
8.80326e-27
2.06959e-27
5.11127e-28
1.32562e-28
3.60859e-29
1.0304e-29
3.08453e-30
9.67266e-31
3.17465e-31
1.08956e-31
3.90691e-32
1.46227e-32
5.70685e-33
2.31959e-33
9.80815e-34
4.30977e-34
1.96566e-34
9.28394e-35
4.58544e-35
2.12194e-35
1.54056e-07
3.23554e-07
3.79364e-07
3.69654e-07
3.26007e-07
2.67265e-07
2.05475e-07
1.48507e-07
1.00915e-07
6.44262e-08
3.8601e-08
2.16793e-08
1.13987e-08
5.60331e-09
2.57171e-09
1.10045e-09
4.38405e-10
1.62383e-10
5.5848e-11
1.78146e-11
5.26539e-12
1.44084e-12
3.64849e-13
8.54717e-14
1.85235e-14
3.71471e-15
6.89643e-16
1.18617e-16
1.89182e-17
2.8073e-18
4.00801e-19
5.81829e-20
8.82125e-21
1.39948e-21
2.32689e-22
4.05911e-23
7.43468e-24
1.43054e-24
2.89248e-25
6.14687e-26
1.37291e-26
3.22222e-27
7.94453e-28
2.05696e-28
5.58996e-29
1.59345e-29
4.762e-30
1.49077e-30
4.88461e-31
1.67362e-31
5.99121e-32
2.23867e-32
8.72266e-33
3.53966e-33
1.49432e-33
6.55582e-34
2.98544e-34
1.40791e-34
6.94347e-35
3.20774e-35
3.09872e-07
5.99737e-07
6.7496e-07
6.41369e-07
5.55601e-07
4.48792e-07
3.40385e-07
2.42832e-07
1.6295e-07
1.02788e-07
6.08978e-08
3.3853e-08
1.7638e-08
8.60223e-09
3.92186e-09
1.669e-09
6.6198e-10
2.44348e-10
8.3816e-11
2.66833e-11
7.87528e-12
2.15279e-12
5.44724e-13
1.27542e-13
2.76294e-14
5.53887e-15
1.02795e-15
1.76738e-16
2.81756e-17
4.17881e-18
5.96212e-19
8.64786e-20
1.3099e-20
2.07599e-21
3.44792e-22
6.00774e-23
1.09906e-23
2.11213e-24
4.26516e-25
9.05213e-26
2.0191e-26
4.73237e-27
1.16517e-27
3.01253e-28
8.17504e-29
2.32695e-29
6.94379e-30
2.17055e-30
7.10125e-31
2.42943e-31
8.6836e-32
3.23976e-32
1.2604e-32
5.1069e-33
2.15268e-33
9.42993e-34
4.28786e-34
2.01913e-34
9.94333e-35
4.58582e-35
5.84173e-07
1.03202e-06
1.11436e-06
1.03354e-06
8.79963e-07
7.00459e-07
5.24051e-07
3.68972e-07
2.44489e-07
1.52409e-07
8.93274e-08
4.91864e-08
2.54191e-08
1.23139e-08
5.58392e-09
2.36648e-09
9.35763e-10
3.44672e-10
1.18067e-10
3.75578e-11
1.1081e-11
3.02899e-12
7.66557e-13
1.7953e-13
3.89039e-14
7.80134e-15
1.44819e-15
2.49028e-16
3.9702e-17
5.88787e-18
8.39852e-19
1.21768e-19
1.84344e-20
2.91972e-21
4.84574e-22
8.4367e-23
1.54211e-23
2.96093e-24
5.97356e-25
1.26655e-25
2.82215e-26
6.6075e-27
1.62503e-27
4.19667e-28
1.13748e-28
3.23377e-29
9.63755e-30
3.00868e-30
9.83017e-31
3.35846e-31
1.19876e-31
4.46616e-32
1.73504e-32
7.01999e-33
2.95482e-33
1.29249e-33
5.86853e-34
2.75946e-34
1.35696e-34
6.24746e-35
1.03338e-06
1.655e-06
1.71596e-06
1.55536e-06
1.30232e-06
1.02167e-06
7.53879e-07
5.23793e-07
3.42769e-07
2.11258e-07
1.22591e-07
6.69387e-08
3.43598e-08
1.65585e-08
7.48013e-09
3.16194e-09
1.24838e-09
4.5949e-10
1.57386e-10
5.00854e-11
1.47877e-11
4.0459e-12
1.02493e-12
2.40284e-13
5.21191e-14
1.04604e-14
1.94326e-15
3.34363e-16
5.33318e-17
7.91165e-18
1.12868e-18
1.63636e-19
2.47681e-20
3.92173e-21
6.50625e-22
1.13226e-22
2.06853e-23
3.96938e-24
8.003e-25
1.69567e-25
3.77555e-26
8.83267e-27
2.17045e-27
5.60016e-28
1.51645e-28
4.30678e-29
1.28218e-29
3.99832e-30
1.30485e-30
4.45265e-31
1.58734e-31
5.90632e-32
2.29151e-32
9.25902e-33
3.89193e-33
1.70004e-33
7.70816e-34
3.61935e-34
1.77731e-34
8.16845e-35
1.71599e-06
2.48276e-06
2.47681e-06
2.19729e-06
1.81027e-06
1.39953e-06
1.01836e-06
6.98258e-07
4.51466e-07
2.75353e-07
1.58411e-07
8.59143e-08
4.3881e-08
2.10754e-08
9.50139e-09
4.01274e-09
1.58427e-09
5.83508e-10
2.00096e-10
6.37713e-11
1.88598e-11
5.16899e-12
1.31169e-12
3.08016e-13
6.69114e-14
1.34474e-14
2.50108e-15
4.30769e-16
6.87643e-17
1.02074e-17
1.45683e-18
2.11263e-19
3.19804e-20
5.06365e-21
8.39991e-22
1.46155e-22
2.66949e-23
5.12104e-24
1.03213e-24
2.18597e-25
4.86496e-26
1.13753e-26
2.7936e-27
7.20333e-28
1.94917e-28
5.53146e-29
1.64541e-29
5.12637e-30
1.67138e-30
5.69757e-31
2.02897e-31
7.54104e-32
2.9223e-32
1.17934e-32
4.95096e-33
2.15983e-33
9.77987e-34
4.5859e-34
2.24887e-34
1.03177e-34
2.67464e-06
3.49724e-06
3.36704e-06
2.92789e-06
2.37409e-06
1.80839e-06
1.29745e-06
8.78248e-07
5.61595e-07
3.39484e-07
1.94002e-07
1.04731e-07
5.33399e-08
2.55835e-08
1.15316e-08
4.87369e-09
1.92689e-09
7.11052e-10
2.44376e-10
7.80701e-11
2.31453e-11
6.35886e-12
1.61736e-12
3.80603e-13
8.28399e-14
1.66771e-14
3.10641e-15
5.35706e-16
8.56066e-17
1.27185e-17
1.81642e-18
2.63533e-19
3.99062e-20
6.31998e-21
1.04854e-21
1.82454e-22
3.33251e-23
6.39269e-24
1.2883e-24
2.72812e-25
6.07032e-26
1.419e-26
3.48375e-27
8.97949e-28
2.42871e-28
6.88881e-29
2.04799e-29
6.37649e-30
2.07747e-30
7.07633e-31
2.51781e-31
9.34931e-32
3.61949e-32
1.45918e-32
6.11904e-33
2.66634e-33
1.2059e-33
5.64761e-34
2.76604e-34
1.2669e-34
3.91268e-06
4.64369e-06
4.33054e-06
3.69555e-06
2.9489e-06
2.21244e-06
1.56543e-06
1.04719e-06
6.63484e-07
3.98463e-07
2.2677e-07
1.22159e-07
6.21803e-08
2.98416e-08
1.3471e-08
5.70561e-09
2.2617e-09
8.37034e-10
2.88558e-10
9.24728e-11
2.74992e-11
7.57719e-12
1.93251e-12
4.55905e-13
9.94529e-14
2.00612e-14
3.74321e-15
6.46472e-16
1.03436e-16
1.53832e-17
2.19881e-18
3.19214e-19
4.8362e-20
7.66219e-21
1.27164e-21
2.21334e-22
4.04353e-23
7.75801e-24
1.56367e-24
3.3116e-25
7.36906e-26
1.72263e-26
4.22905e-27
1.08996e-27
2.94764e-28
8.359e-29
2.48439e-29
7.73265e-30
2.51829e-30
8.57371e-31
3.0489e-31
1.13143e-31
4.37715e-32
1.76327e-32
7.38806e-33
3.21641e-33
1.45327e-33
6.79921e-34
3.32655e-34
1.52129e-34
5.37144e-06
5.83478e-06
5.29044e-06
4.43292e-06
3.47913e-06
2.57065e-06
1.79566e-06
1.18975e-06
7.49122e-07
4.48385e-07
2.54882e-07
1.37357e-07
7.00204e-08
3.3681e-08
1.52476e-08
6.47917e-09
2.57742e-09
9.57392e-10
3.31278e-10
1.06551e-10
3.17969e-11
8.79027e-12
2.24872e-12
5.31967e-13
1.1633e-13
2.35163e-14
4.3961e-15
7.60441e-16
1.21836e-16
1.81403e-17
2.5953e-18
3.77056e-19
5.71604e-20
9.06089e-21
1.50447e-21
2.61969e-22
4.78778e-23
9.18939e-24
1.85284e-24
3.92533e-25
8.73757e-26
2.04314e-26
5.01727e-27
1.29342e-27
3.49854e-28
9.92272e-29
2.94943e-29
9.18042e-30
2.9897e-30
1.01778e-30
3.61873e-31
1.34258e-31
5.19242e-32
2.09089e-32
8.75678e-33
3.81026e-33
1.72055e-33
8.04424e-34
3.93285e-34
1.7964e-34
6.92143e-06
6.96285e-06
6.15667e-06
5.06248e-06
3.90512e-06
2.84432e-06
1.96702e-06
1.29598e-06
8.1426e-07
4.87463e-07
2.77541e-07
1.49939e-07
7.66684e-08
3.70081e-08
1.68182e-08
7.17569e-09
2.86653e-09
1.0693e-09
3.71543e-10
1.19982e-10
3.59411e-11
9.97105e-12
2.55903e-12
6.07132e-13
1.3311e-13
2.6969e-14
5.05138e-15
8.75246e-16
1.40427e-16
2.09333e-17
2.99783e-18
4.35887e-19
6.61242e-20
1.04881e-20
1.74242e-21
3.03565e-22
5.55091e-23
1.06597e-23
2.15046e-24
4.55838e-25
1.01524e-25
2.37532e-26
5.83631e-27
1.50541e-27
4.0742e-28
1.15616e-28
3.43829e-29
1.07071e-29
3.48836e-30
1.18798e-30
4.22526e-31
1.56801e-31
6.06548e-32
2.44276e-32
1.0231e-32
4.45166e-33
2.00999e-33
9.39587e-34
4.59264e-34
2.09638e-34
8.31644e-06
7.9124e-06
6.82804e-06
5.50047e-06
4.17301e-06
3.00799e-06
2.07124e-06
1.36452e-06
8.59182e-07
5.15965e-07
2.94804e-07
1.59868e-07
8.20771e-08
3.97899e-08
1.81643e-08
7.78618e-09
3.12498e-09
1.17109e-09
4.08727e-10
1.32549e-10
3.9863e-11
1.10994e-11
2.85807e-12
6.80094e-13
1.49498e-13
3.03587e-14
5.69752e-15
9.88865e-16
1.58883e-16
2.37129e-17
3.39929e-18
4.94667e-19
7.50943e-20
1.19185e-20
1.98125e-21
3.4538e-22
6.31941e-23
1.21433e-23
2.45141e-24
5.20003e-25
1.15903e-25
2.71393e-26
6.67389e-27
1.72296e-27
4.66715e-28
1.32563e-28
3.94594e-29
1.22993e-29
4.01075e-30
1.3671e-30
4.86655e-31
1.8075e-31
6.9974e-32
2.82016e-32
1.18198e-32
5.14615e-33
2.32487e-33
1.08732e-33
5.31705e-34
2.42741e-34
1.0956e-05
8.50479e-06
7.18322e-06
5.6684e-06
4.25779e-06
3.06596e-06
2.11911e-06
1.40328e-06
8.87994e-07
5.35697e-07
3.07425e-07
1.67466e-07
8.63881e-08
4.20892e-08
1.93126e-08
8.3211e-09
3.35665e-09
1.26409e-09
4.43256e-10
1.4438e-10
4.35986e-11
1.2185e-11
3.14821e-12
7.51396e-13
1.65612e-13
3.3709e-14
6.33895e-15
1.10206e-15
1.77326e-16
2.64974e-17
3.80225e-18
5.53763e-19
8.41254e-20
1.33604e-20
2.2223e-21
3.8764e-22
7.09715e-23
1.36471e-23
2.75703e-24
5.85305e-25
1.30572e-25
3.06034e-26
7.53347e-27
1.947e-27
5.28012e-28
1.50156e-28
4.47523e-29
1.39671e-29
4.56066e-30
1.55663e-30
5.54871e-31
2.06364e-31
7.99971e-32
3.22837e-32
1.35482e-32
5.90611e-33
2.67145e-33
1.25087e-33
6.12372e-34
2.799e-34
1.02021e-05
8.39154e-06
6.96772e-06
5.51654e-06
4.19066e-06
3.05421e-06
2.13103e-06
1.42063e-06
9.03583e-07
5.47674e-07
3.1585e-07
1.72971e-07
8.9729e-08
4.39687e-08
2.02914e-08
8.79234e-09
3.56618e-09
1.35004e-09
4.75734e-10
1.55674e-10
4.72089e-11
1.32452e-11
3.43409e-12
8.22179e-13
1.8171e-13
3.70738e-14
6.98603e-15
1.21668e-15
1.96057e-16
2.93325e-17
4.21333e-18
6.14142e-19
9.33635e-20
1.48368e-20
2.46933e-21
4.30979e-22
7.89538e-23
1.51919e-23
3.07127e-24
6.52528e-25
1.45695e-25
3.41803e-26
8.42278e-27
2.1793e-27
5.91734e-28
1.68496e-28
5.02875e-29
1.57172e-29
5.13982e-30
1.75702e-30
6.2729e-31
2.33673e-31
9.07304e-32
3.6675e-32
1.54161e-32
6.73128e-33
3.04957e-33
1.43017e-33
7.01227e-34
3.21085e-34
9.67187e-06
8.15693e-06
6.78464e-06
5.41803e-06
4.14543e-06
3.0339e-06
2.12247e-06
1.41903e-06
9.06223e-07
5.52137e-07
3.20331e-07
1.7654e-07
9.21695e-08
4.5452e-08
2.11062e-08
9.20037e-09
3.75319e-09
1.42861e-09
5.06009e-10
1.66372e-10
5.06744e-11
1.42741e-11
3.71413e-12
8.92057e-13
1.97706e-13
4.04357e-14
7.63551e-15
1.33217e-15
2.14989e-16
3.22051e-17
4.63069e-18
6.75538e-19
1.02768e-19
1.63412e-20
2.72118e-21
4.75189e-22
8.70999e-23
1.67689e-23
3.39222e-24
7.2122e-25
1.61157e-25
3.78406e-26
9.33373e-27
2.41756e-27
6.57185e-28
1.87367e-28
5.59943e-29
1.75257e-29
5.7398e-30
1.96518e-30
7.02741e-31
2.62214e-31
1.01985e-31
4.12956e-32
1.73886e-32
7.60585e-33
3.45183e-33
1.62164e-33
7.96478e-34
3.6544e-34
9.38064e-06
7.96896e-06
6.58644e-06
5.24786e-06
4.01515e-06
2.94577e-06
2.07089e-06
1.39372e-06
8.96651e-07
5.50399e-07
3.21639e-07
1.78493e-07
9.38158e-08
4.65664e-08
2.17615e-08
9.54457e-09
3.91667e-09
1.49922e-09
5.33816e-10
1.76371e-10
5.396e-11
1.52611e-11
3.98536e-12
9.6028e-13
2.13429e-13
4.37585e-14
8.28043e-15
1.44728e-15
2.3392e-16
3.50851e-17
5.05e-18
7.37318e-19
1.12243e-19
1.78581e-20
2.97531e-21
5.19815e-22
9.5325e-23
1.83616e-23
3.71639e-24
7.9061e-25
1.7678e-25
4.154e-26
1.02548e-26
2.6586e-27
7.23455e-28
2.06493e-28
6.17856e-29
1.93637e-29
6.3506e-30
2.1775e-30
7.79866e-31
2.91458e-31
1.13546e-31
4.60545e-32
1.94258e-32
8.51178e-33
3.86977e-33
1.82119e-33
8.96064e-34
4.11989e-34
9.17834e-06
7.79989e-06
6.38986e-06
5.07335e-06
3.88373e-06
2.85886e-06
2.01949e-06
1.36645e-06
8.83998e-07
5.45728e-07
3.20799e-07
1.79128e-07
9.47505e-08
4.73352e-08
2.22633e-08
9.82612e-09
4.05656e-09
1.56164e-09
5.59007e-10
1.85603e-10
5.70395e-11
1.61975e-11
4.24523e-12
1.02618e-12
2.28719e-13
4.70082e-14
8.91411e-15
1.56083e-15
2.52653e-16
3.79425e-17
5.46689e-18
7.98842e-19
1.2169e-19
1.9372e-20
3.2291e-21
5.64403e-22
1.03545e-22
1.99535e-23
4.04042e-24
8.59968e-25
1.92395e-25
4.52374e-26
1.11754e-26
2.89959e-27
7.8973e-28
2.25631e-28
6.75844e-29
2.12058e-29
6.96344e-30
2.39082e-30
8.57474e-31
3.20935e-31
1.25222e-31
5.08711e-32
2.14924e-32
9.43296e-33
4.29582e-33
2.02514e-33
9.98118e-34
4.59851e-34
9.03022e-06
7.65855e-06
6.21531e-06
4.90919e-06
3.75117e-06
2.76311e-06
1.95667e-06
1.32904e-06
8.64051e-07
5.36504e-07
3.17387e-07
1.7841e-07
9.50143e-08
4.77887e-08
2.26254e-08
1.00496e-08
4.17401e-09
1.61602e-09
5.81548e-10
1.9403e-10
5.98947e-11
1.70765e-11
4.49163e-12
1.08918e-12
2.43434e-13
5.01532e-14
9.53023e-15
1.67166e-15
2.70996e-16
4.07478e-17
5.87703e-18
8.59472e-19
1.31012e-19
2.08673e-20
3.47996e-21
6.08497e-22
1.11677e-22
2.15284e-23
4.36098e-24
9.28577e-25
2.07839e-25
4.88937e-26
1.20857e-26
3.13783e-27
8.55252e-28
2.44554e-28
7.33199e-29
2.30286e-29
7.5703e-30
2.60224e-30
9.34475e-31
3.5022e-31
1.36839e-31
5.56709e-32
2.35556e-32
1.03544e-32
4.72287e-33
2.23002e-33
1.10087e-33
5.0818e-34
8.91229e-06
7.53705e-06
6.06032e-06
4.75773e-06
3.62422e-06
2.66835e-06
1.89272e-06
1.28987e-06
8.42376e-07
5.25836e-07
3.129e-07
1.76976e-07
9.48495e-08
4.80108e-08
2.28743e-08
1.02227e-08
4.27093e-09
1.66276e-09
6.01472e-10
2.01637e-10
6.25135e-11
1.7893e-11
4.72282e-12
1.14878e-12
2.57449e-13
5.3165e-14
1.0123e-14
1.77869e-15
2.88765e-16
4.34723e-17
6.27621e-18
9.18583e-19
1.40113e-19
2.23287e-20
3.72531e-21
6.51646e-22
1.19637e-22
2.30703e-23
4.67482e-24
9.95741e-25
2.22954e-25
5.24712e-26
1.29761e-26
3.37081e-27
9.19313e-28
2.63053e-28
7.89267e-29
2.48108e-29
8.16382e-30
2.80913e-30
1.00988e-30
3.78922e-31
1.48237e-31
6.03864e-32
2.55854e-32
1.12624e-32
5.14445e-33
2.43265e-33
1.2027e-33
5.56197e-34
8.81536e-06
7.43238e-06
5.92476e-06
4.62215e-06
3.5076e-06
2.57881e-06
1.83036e-06
1.25023e-06
8.19425e-07
5.13851e-07
3.07386e-07
1.74862e-07
9.42844e-08
4.80197e-08
2.30193e-08
1.03492e-08
4.34863e-09
1.70219e-09
6.18845e-10
2.08423e-10
6.48897e-11
1.86435e-11
4.93752e-12
1.20458e-12
2.70657e-13
5.60189e-14
1.06871e-14
1.88093e-15
3.05792e-16
4.60897e-17
6.66049e-18
9.75581e-19
1.489e-19
2.37412e-20
3.96265e-21
6.93414e-22
1.27345e-22
2.45637e-23
4.97882e-24
1.06079e-24
2.3759e-25
5.59343e-26
1.38377e-26
3.59616e-27
9.81252e-28
2.80933e-28
8.43448e-29
2.65328e-29
8.7373e-30
3.00906e-30
1.08277e-30
4.06684e-31
1.5927e-31
6.49551e-32
2.75542e-32
1.21443e-32
5.55446e-33
2.63003e-33
1.30206e-33
6.03158e-34
8.73634e-06
7.34366e-06
5.80808e-06
4.50327e-06
3.40315e-06
2.49674e-06
1.77176e-06
1.21198e-06
7.96609e-07
5.01499e-07
3.01413e-07
1.72369e-07
9.34639e-08
4.78777e-08
2.30845e-08
1.04376e-08
4.40976e-09
1.73504e-09
6.33826e-10
2.14413e-10
6.7023e-11
1.93259e-11
5.13471e-12
1.25623e-12
2.82963e-13
5.8692e-14
1.12178e-14
1.97744e-15
3.21912e-16
4.85736e-17
7.0259e-18
1.02987e-18
1.57281e-19
2.50899e-20
4.18946e-21
7.33354e-22
1.34719e-22
2.59929e-23
5.26977e-24
1.12304e-24
2.51595e-25
5.92469e-26
1.46615e-26
3.81153e-27
1.04042e-27
2.98005e-28
8.95158e-29
2.81757e-29
9.28431e-30
3.19974e-30
1.15229e-30
4.33171e-31
1.69801e-31
6.93185e-32
2.94361e-32
1.2988e-32
5.94721e-33
2.81936e-33
1.39751e-33
6.48359e-34
8.67057e-06
7.2678e-06
5.70766e-06
4.39973e-06
3.31082e-06
2.42292e-06
1.71802e-06
1.17615e-06
7.74714e-07
4.89301e-07
2.95291e-07
1.69668e-07
9.24727e-08
4.7624e-08
2.30865e-08
1.04942e-08
4.45649e-09
1.76197e-09
6.46585e-10
2.19642e-10
6.89177e-11
1.99398e-11
5.31384e-12
1.30352e-12
2.94298e-13
6.11662e-14
1.1711e-14
2.06744e-15
3.36985e-16
5.09017e-17
7.36904e-18
1.08093e-18
1.65174e-19
2.63614e-20
4.40347e-21
7.71066e-22
1.41685e-22
2.73435e-23
5.54477e-24
1.18189e-24
2.6483e-25
6.23767e-26
1.54396e-26
4.01485e-27
1.09625e-27
3.14103e-28
9.4389e-29
2.97231e-29
9.79932e-30
3.37922e-30
1.21772e-30
4.58094e-31
1.79711e-31
7.34264e-32
3.12087e-32
1.37834e-32
6.31776e-33
2.99817e-33
1.48776e-33
6.91183e-34
8.61556e-06
7.20303e-06
5.62163e-06
4.31038e-06
3.23028e-06
2.35766e-06
1.66979e-06
1.14343e-06
7.54334e-07
4.77691e-07
2.893e-07
1.6692e-07
9.1395e-08
4.72986e-08
2.30427e-08
1.05258e-08
4.49119e-09
1.78371e-09
6.57321e-10
2.24154e-10
7.05807e-11
2.04855e-11
5.47455e-12
1.34626e-12
3.04603e-13
6.34261e-14
1.21632e-14
2.15021e-15
3.50884e-16
5.30529e-17
7.68667e-18
1.12827e-18
1.72499e-19
2.75427e-20
4.6025e-21
8.06162e-22
1.48172e-22
2.86018e-23
5.80102e-24
1.23673e-24
2.77164e-25
6.52927e-26
1.61642e-26
4.20411e-27
1.14818e-27