/*--------------------------------*- C++ -*----------------------------------*\
| =========                 |                                                 |
| \\      /  F ield         | OpenFOAM: The Open Source CFD Toolbox           |
|  \\    /   O peration     | Version:  2406                                  |
|   \\  /    A nd           | Website:  www.openfoam.com                      |
|    \\/     M anipulation  |                                                 |
\*---------------------------------------------------------------------------*/
FoamFile
{
    version     2.0;
    format      ascii;
    arch        "LSB;label=32;scalar=64";
    class       volScalarField;
    location    "2e-07";
    object      He_m;
}
// * * * * * * * * * * * * * * * * * * * * * * * * * * * * * * * * * * * * * //

dimensions      [0 -3 0 0 0 0 0];

internalField   nonuniform List<scalar> 
5880
(
0.0725549
0.215152
0.34456
0.446119
0.508771
0.52785
0.505929
0.451591
0.376919
0.294648
0.215738
0.147811
0.0946071
0.0564442
0.0313046
0.0160878
0.00763356
0.0033319
0.00133326
0.00048779
0.000162906
4.96371e-05
1.38093e-05
3.51402e-06
8.1998e-07
1.76001e-07
3.48638e-08
6.39558e-09
1.08996e-09
1.73565e-10
2.67442e-11
4.20874e-12
6.93717e-13
1.19926e-13
2.1756e-14
4.14299e-15
8.28259e-16
1.73838e-16
3.82992e-17
8.85612e-18
2.14872e-18
5.468e-19
1.45879e-19
4.07812e-20
1.1939e-20
3.65775e-21
1.17201e-21
3.92436e-22
1.37196e-22
5.00333e-23
1.9017e-23
7.52639e-24
3.0986e-24
1.3255e-24
5.88516e-25
2.70921e-25
1.29182e-25
6.36253e-26
3.27771e-26
1.5671e-26
3.42594
10.1416
16.1827
20.8396
23.6025
24.2907
23.0742
20.3981
16.8509
13.0294
9.42924
6.37984
4.02872
2.36896
1.29363
0.653983
0.305029
0.130802
0.0514023
0.0184645
0.00605327
0.00181014
0.000494076
0.0001233
2.8201e-05
5.92923e-06
1.14967e-06
2.06286e-07
3.43625e-08
5.34459e-09
8.0413e-10
1.23625e-10
1.99244e-11
3.3711e-12
5.99138e-13
1.1189e-13
2.19585e-14
4.52856e-15
9.81274e-16
2.23363e-16
5.33927e-17
1.33971e-17
3.52684e-18
9.73586e-19
2.81642e-19
8.53169e-20
2.70464e-20
8.96507e-21
3.10433e-21
1.1219e-21
4.2278e-22
1.65974e-22
6.78094e-23
2.87976e-23
1.26986e-23
5.808e-24
2.75245e-24
1.34788e-24
6.90404e-25
3.28561e-25
103.761
306.604
487.411
624.238
702.182
717.052
675.453
591.888
484.529
371.13
265.958
178.107
111.259
64.6811
34.9026
17.4292
8.02846
3.40017
1.32001
0.468614
0.151902
0.0449355
0.0121379
0.00299846
0.000678921
0.000141298
2.71132e-05
4.81262e-06
7.92669e-07
1.21831e-07
1.81053e-08
2.7492e-09
4.37714e-10
7.31796e-11
1.28557e-11
2.37395e-12
4.60862e-13
9.40586e-14
2.01783e-14
4.54937e-15
1.07759e-15
2.6804e-16
6.99796e-17
1.91661e-17
5.50307e-18
1.65522e-18
5.21202e-19
1.71665e-19
5.90849e-20
2.12318e-20
7.95815e-21
3.10838e-21
1.26389e-21
5.34344e-22
2.34629e-22
1.06887e-22
5.04646e-23
2.46272e-23
1.25695e-23
5.96826e-24
2257.21
6656.61
10539.1
13419
14987.2
15183.5
14183.3
12322.1
9999.15
7591.02
5390.43
3576.02
2212.14
1273.1
679.86
335.932
153.123
64.1908
24.6798
8.6832
2.79175
0.81978
0.219971
0.0540113
0.0121603
0.00251701
0.000480343
8.47796e-05
1.388e-05
2.11946e-06
3.12767e-07
4.71466e-08
7.45091e-09
1.23637e-09
2.15572e-10
3.95124e-11
7.6146e-12
1.54295e-12
3.28697e-13
7.36047e-14
1.73199e-14
4.28086e-15
1.11082e-15
3.02449e-16
8.63524e-17
2.58335e-17
8.09277e-18
2.65241e-18
9.08673e-19
3.2508e-19
1.21335e-19
4.72035e-20
1.91209e-20
8.05507e-21
3.52504e-21
1.60076e-21
7.53501e-22
3.66692e-22
1.86622e-22
8.84476e-23
37644.9
110770
174589
220892
244842
246007
227843
196240
157871
118811
83627
54980.7
33698.6
19211
10160.8
4972.46
2245.2
932.754
355.638
124.191
39.6692
11.5842
3.09403
0.756781
0.169829
0.0350503
0.00667058
0.00117404
0.000191628
2.916e-05
4.28605e-06
6.43272e-07
1.01191e-07
1.67093e-08
2.89874e-09
5.28582e-10
1.01337e-10
2.04278e-11
4.32937e-12
9.64558e-13
2.25841e-13
5.55487e-14
1.43459e-14
3.88813e-15
1.10518e-15
3.29217e-16
1.02709e-16
3.35302e-17
1.14435e-17
4.07918e-18
1.5173e-18
5.88351e-19
2.37585e-19
9.97915e-20
4.35482e-20
1.97233e-20
9.26075e-21
4.49622e-21
2.28279e-21
1.08017e-21
501083
1.47069e+06
2.30634e+06
2.89775e+06
3.18589e+06
3.17335e+06
2.91319e+06
2.48715e+06
1.9835e+06
1.47983e+06
1.03256e+06
672891
408740
230901
121008
58681
26262.6
10820
4094.2
1420.23
451.111
131.138
34.9023
8.51432
1.90695
0.392984
0.0746978
0.0131311
0.00214033
0.000325129
4.76829e-05
7.13755e-06
1.1194e-06
1.84228e-07
3.18456e-08
5.78514e-09
1.10479e-09
2.2182e-10
4.68233e-11
1.03901e-11
2.42305e-12
5.93636e-13
1.52719e-13
4.12345e-14
1.16775e-14
3.46612e-15
1.07762e-15
3.50623e-16
1.1928e-16
4.23876e-17
1.572e-17
6.0784e-18
2.44794e-18
1.02556e-18
4.46454e-19
2.01735e-19
9.45128e-20
4.5793e-20
2.3201e-20
1.09622e-20
5.47067e+06
1.60094e+07
2.49625e+07
3.11226e+07
3.39176e+07
3.34751e+07
3.04499e+07
2.57633e+07
2.03651e+07
1.50614e+07
1.04177e+07
6.72959e+06
4.05172e+06
2.26848e+06
1.17825e+06
566361
251330
102727
38593.4
13304.8
4204.43
1217.33
323.031
78.6418
17.5904
3.62221
0.688175
0.120926
0.0197007
0.00299022
0.000437983
6.54481e-05
1.02428e-05
1.68156e-06
2.89872e-07
5.25017e-08
9.99465e-09
2.00018e-09
4.20799e-10
9.30593e-11
2.16283e-11
5.2809e-12
1.35401e-12
3.6438e-13
1.02858e-13
3.04338e-14
9.43284e-15
3.06002e-15
1.03801e-15
3.67846e-16
1.36057e-16
5.24744e-17
2.10813e-17
8.81131e-18
3.82727e-18
1.72573e-18
8.06873e-19
3.90204e-19
1.97316e-19
9.30988e-20
4.99706e+07
1.45728e+08
2.25739e+08
2.79039e+08
3.01212e+08
2.94398e+08
2.65241e+08
2.22343e+08
1.74172e+08
1.27672e+08
8.75332e+07
5.60469e+07
3.34467e+07
1.85606e+07
9.5557e+06
4.55367e+06
2.00407e+06
812834
303262
103924
32680.2
9426.07
2494.43
606.155
135.437
27.8741
5.29464
0.930291
0.151533
0.0229901
0.00336451
0.000502106
7.84474e-05
1.28521e-05
2.21026e-06
3.99285e-07
7.58002e-08
1.51254e-08
3.17253e-09
6.99454e-10
1.62061e-10
3.94472e-11
1.0083e-11
2.70519e-12
7.6134e-13
2.24606e-13
6.94162e-14
2.24559e-14
7.59684e-15
2.68513e-15
9.90666e-16
3.81156e-16
1.52772e-16
6.37123e-17
2.76153e-17
1.24266e-17
5.79892e-18
2.79928e-18
1.41292e-18
6.65715e-19
3.87734e+08
1.12607e+09
1.73115e+09
2.11946e+09
2.26427e+09
2.19026e+09
1.9537e+09
1.62209e+09
1.25894e+09
9.14494e+08
6.21381e+08
3.94325e+08
2.33226e+08
1.28278e+08
6.54647e+07
3.09305e+07
1.35016e+07
5.43467e+06
2.01382e+06
686054
214690
61688.9
16279.3
3948.48
881.219
181.252
34.4191
6.04673
0.984753
0.149342
0.0218379
0.00325499
0.00050773
8.30191e-05
1.42453e-05
2.56705e-06
4.86037e-07
9.67154e-08
2.02276e-08
4.44651e-09
1.02718e-09
2.49279e-10
6.35285e-11
1.6994e-11
4.76887e-12
1.40288e-12
4.32364e-13
1.39489e-13
4.7065e-14
1.65929e-14
6.10682e-15
2.34402e-15
9.37374e-16
3.9007e-16
1.68718e-16
7.57701e-17
3.52909e-17
1.70051e-17
8.56776e-18
4.03093e-18
2.58699e+09
7.47544e+09
1.13915e+10
1.37974e+10
1.45749e+10
1.39443e+10
1.2309e+10
1.01189e+10
7.77899e+09
5.5984e+09
3.76929e+09
2.3703e+09
1.38931e+09
7.57326e+08
3.831e+08
1.79466e+08
7.7705e+07
3.10423e+07
1.14247e+07
3.86912e+06
1.20482e+06
344832
90728.8
21959.3
4893.91
1005.69
190.869
33.5176
5.45613
0.826914
0.120797
0.0179801
0.00279975
0.000456847
7.82086e-05
1.40579e-05
2.65452e-06
5.26735e-07
1.09845e-07
2.40755e-08
5.54508e-09
1.34169e-09
3.40914e-10
9.09271e-11
2.5442e-11
7.46307e-12
2.29371e-12
7.37989e-13
2.48349e-13
8.73325e-14
3.20625e-14
1.22775e-14
4.89854e-15
2.03396e-15
8.77902e-16
3.93467e-16
1.8291e-16
8.79757e-17
4.42445e-17
2.07843e-17
1.49946e+10
4.30597e+10
6.49436e+10
7.7716e+10
8.10964e+10
7.66882e+10
6.69612e+10
5.44854e+10
4.14773e+10
2.95669e+10
1.97208e+10
1.22866e+10
7.13562e+09
3.8546e+09
1.93268e+09
8.97659e+08
3.85522e+08
1.52853e+08
5.58728e+07
1.8809e+07
5.82732e+06
1.66094e+06
435591
105168
23395.7
4801.47
910.355
159.727
25.9787
3.93325
0.573809
0.0852652
0.0132505
0.00215723
0.000368376
6.60374e-05
1.24345e-05
2.46017e-06
5.1151e-07
1.11771e-07
2.56647e-08
6.19093e-09
1.5683e-09
4.1704e-10
1.16347e-10
3.403e-11
1.04293e-11
3.34633e-12
1.1231e-12
3.93916e-13
1.44256e-13
5.51055e-14
2.19352e-14
9.08753e-15
3.91398e-15
1.75061e-15
8.12202e-16
3.89926e-16
1.95738e-16
9.18023e-17
7.61758e+10
2.17045e+11
3.23411e+11
3.81811e+11
3.9317e+11
3.67244e+11
3.17045e+11
2.55257e+11
1.92363e+11
1.35786e+11
8.9699e+10
5.53559e+10
3.18487e+10
1.70469e+10
8.47114e+09
3.90086e+09
1.66174e+09
6.53886e+08
2.37379e+08
7.94261e+07
2.44788e+07
6.94657e+06
1.81527e+06
437027
97003.4
19872.3
3762.16
659.206
107.073
16.1876
2.35746
0.349592
0.0542026
0.00880187
0.00149893
0.000267932
5.02993e-05
9.92113e-06
2.05633e-06
4.47921e-07
1.02527e-07
2.46543e-08
6.22609e-09
1.65055e-09
4.59086e-10
1.33881e-10
4.09125e-11
1.30903e-11
4.3814e-12
1.53268e-12
5.59849e-13
2.13334e-13
8.47182e-14
3.50179e-14
1.50491e-14
6.71696e-15
3.11011e-15
1.49028e-15
7.46696e-16
3.49612e-16
3.41947e+11
9.64586e+11
1.41695e+12
1.64768e+12
1.67259e+12
1.54217e+12
1.31578e+12
1.04783e+12
7.81481e+11
5.46097e+11
3.5719e+11
2.18294e+11
1.24398e+11
6.59647e+10
3.24852e+10
1.48303e+10
6.26626e+09
2.44712e+09
8.82254e+08
2.93382e+08
8.99326e+07
2.54034e+07
6.61271e+06
1.58689e+06
351289
71803.6
13566.8
2372.84
384.721
58.0526
8.43643
1.24806
0.193
0.0312528
0.00530646
0.000945609
0.00017696
3.47918e-05
7.18786e-06
1.56061e-06
3.56058e-07
8.53452e-08
2.14843e-08
5.67772e-09
1.57436e-09
4.57746e-10
1.39473e-10
4.44984e-11
1.48527e-11
5.18177e-12
1.88788e-12
7.17592e-13
2.84282e-13
1.17235e-13
5.02707e-14
2.23899e-14
1.0346e-14
4.94791e-15
2.4744e-15
1.15651e-15
1.36663e+12
3.80537e+12
5.497e+12
6.2852e+12
6.28315e+12
5.71505e+12
4.81705e+12
3.7932e+12
2.79888e+12
1.93565e+12
1.25324e+12
7.58292e+11
4.27922e+11
2.24774e+11
1.09688e+11
4.96427e+10
2.0805e+10
8.06355e+09
2.88708e+09
9.54107e+08
2.90866e+08
8.17693e+07
2.11977e+07
5.06905e+06
1.11874e+06
228067
42989.3
7502.03
1213.67
182.723
26.4887
3.90815
0.602627
0.0972903
0.0164674
0.00292504
0.000545597
0.000106915
2.20151e-05
4.76406e-06
1.08337e-06
2.58835e-07
6.4949e-08
1.71103e-08
4.72988e-09
1.37107e-09
4.16533e-10
1.32515e-10
4.41083e-11
1.53471e-11
5.57693e-12
2.11452e-12
8.35673e-13
3.43825e-13
1.47105e-13
6.53789e-14
3.01486e-14
1.43904e-14
7.18278e-15
3.35107e-15
4.89855e+12
1.34106e+13
1.89945e+13
2.1317e+13
2.09653e+13
1.88023e+13
1.56505e+13
1.21825e+13
8.89075e+12
6.08333e+12
3.8977e+12
2.33435e+12
1.30428e+12
6.78543e+11
3.28096e+11
1.47205e+11
6.1193e+10
2.35393e+10
8.37032e+09
2.7491e+09
8.33471e+08
2.33172e+08
6.01907e+07
1.43403e+07
3.15461e+06
641234
120547
20983.7
3386.34
508.546
73.5253
10.8169
1.66295
0.267635
0.0451547
0.00799452
0.00148628
0.000290287
5.95761e-05
1.28499e-05
2.91263e-06
6.93642e-07
1.73505e-07
4.55669e-08
1.2558e-08
3.62947e-09
1.09945e-09
3.48796e-10
1.15783e-10
4.01793e-11
1.45633e-11
5.50816e-12
2.17169e-12
8.91469e-13
3.80576e-13
1.68785e-13
7.76756e-14
3.70043e-14
1.84353e-14
8.58509e-15
1.58627e+13
4.24706e+13
5.87905e+13
6.46459e+13
6.24962e+13
5.52377e+13
4.53917e+13
3.49178e+13
2.51971e+13
1.70526e+13
1.08094e+13
6.40642e+12
3.54341e+12
1.82563e+12
8.74648e+11
3.89041e+11
1.60429e+11
6.12578e+10
2.16364e+10
7.06314e+09
2.12983e+09
5.92988e+08
1.52426e+08
3.61795e+07
7.93246e+06
1.60759e+06
301378
52322.7
8422.06
1261.5
181.889
26.6819
4.08964
0.656152
0.110355
0.0194757
0.00360914
0.000702643
0.000143744
3.09057e-05
6.98328e-06
1.65793e-06
4.13446e-07
1.08258e-07
2.97485e-08
8.57329e-09
2.58984e-09
8.19394e-10
2.71284e-10
9.39023e-11
3.39519e-11
1.28107e-11
5.03925e-12
2.064e-12
8.7926e-13
3.89151e-13
1.78736e-13
8.49884e-14
4.22629e-14
1.96453e-14
4.67336e+13
1.21535e+14
1.63841e+14
1.76226e+14
1.67344e+14
1.45721e+14
1.18191e+14
8.98273e+13
6.40756e+13
4.28796e+13
2.6884e+13
1.57646e+13
8.63049e+12
4.40342e+12
2.09038e+12
9.2189e+11
3.77181e+11
1.42993e+11
5.01789e+10
1.62858e+10
4.8855e+09
1.354e+09
3.46636e+08
8.19816e+07
1.7917e+07
3.62048e+06
676905
117217
18820.2
2811.87
404.36
59.1527
9.04061
1.44624
0.242511
0.0426701
0.00788356
0.00153018
0.000312101
6.69043e-05
1.5073e-05
3.56819e-06
8.87291e-07
2.31683e-07
6.34907e-08
1.82486e-08
5.49822e-09
1.73515e-09
5.73048e-10
1.97878e-10
7.13792e-11
2.6872e-11
1.05473e-11
4.31088e-12
1.83268e-12
8.09534e-13
3.71112e-13
1.76143e-13
8.74371e-14
4.05705e-14
1.26136e+14
3.1591e+14
4.1324e+14
4.34138e+14
4.04745e+14
3.47163e+14
2.77869e+14
2.08604e+14
1.47054e+14
9.72842e+13
6.03151e+13
3.49882e+13
1.89582e+13
9.57921e+12
4.50648e+12
1.97096e+12
8.00321e+11
3.01347e+11
1.05107e+11
3.39292e+10
1.01298e+10
2.7957e+09
7.13083e+08
1.68099e+08
3.66307e+07
7.38232e+06
1.37685e+06
237863
38103.8
5679.87
814.83
118.899
18.1246
2.8917
0.483581
0.0848548
0.0156346
0.00302638
0.000615597
0.000131609
2.95716e-05
6.98205e-06
1.73171e-06
4.51024e-07
1.2329e-07
3.53497e-08
1.06252e-08
3.34527e-09
1.10228e-09
3.7978e-10
1.36698e-10
5.1354e-11
2.01153e-11
8.2052e-12
3.48157e-12
1.53502e-12
7.02431e-13
3.32822e-13
1.64934e-13
7.63942e-14
3.13972e+14
7.49651e+14
9.48124e+14
9.71816e+14
8.89281e+14
7.51281e+14
5.93339e+14
4.39904e+14
3.06394e+14
2.00333e+14
1.22802e+14
7.04654e+13
3.77909e+13
1.89132e+13
8.81984e+12
3.82694e+12
1.54295e+12
5.77332e+11
2.00259e+11
6.43346e+10
1.91275e+10
5.25979e+09
1.33735e+09
3.14387e+08
6.83403e+07
1.37422e+07
2.5577e+06
440996
70507.2
10489.5
1501.73
218.656
33.2564
5.29366
0.883186
0.154607
0.0284188
0.00548789
0.00111364
0.000237525
5.32452e-05
1.25424e-05
3.10367e-06
8.06519e-07
2.19975e-07
6.29325e-08
1.8875e-08
5.93006e-09
1.94992e-09
6.70455e-10
2.40843e-10
9.03024e-11
3.53042e-11
1.43742e-11
6.08819e-12
2.67958e-12
1.2241e-12
5.79044e-13
2.86492e-13
1.3247e-13
7.24956e+14
1.63151e+15
1.98872e+15
1.98742e+15
1.78505e+15
1.48541e+15
1.15746e+15
8.47337e+14
5.82977e+14
3.76666e+14
2.28264e+14
1.29567e+14
6.87887e+13
3.41097e+13
1.57746e+13
6.7943e+12
2.72174e+12
1.01276e+12
3.49628e+11
1.11868e+11
3.3146e+10
9.08833e+09
2.3051e+09
5.40736e+08
1.17324e+08
2.35525e+07
4.37679e+06
753511
120294
17869.3
2554.12
371.236
56.3599
8.9542
1.49101
0.260495
0.047787
0.00920956
0.00186512
0.000397006
8.88172e-05
2.08799e-05
5.15657e-06
1.33734e-06
3.6404e-07
1.03946e-07
3.11159e-08
9.75732e-09
3.20238e-09
1.09906e-09
3.94089e-10
1.47496e-10
5.7563e-11
2.33966e-11
9.89288e-12
4.34694e-12
1.98259e-12
9.36366e-13
4.62573e-13
2.13525e-13
1.56015e+15
3.27054e+15
3.83246e+15
3.73352e+15
3.29233e+15
2.69892e+15
2.07484e+15
1.49952e+15
1.01893e+15
6.50475e+14
3.89717e+14
2.18866e+14
1.15072e+14
5.65646e+13
2.59601e+13
1.11081e+13
4.42519e+12
1.63902e+12
5.63689e+11
1.79803e+11
5.31426e+10
1.45419e+10
3.68223e+09
8.6261e+08
1.86944e+08
3.74897e+07
6.96004e+06
1.19711e+06
190929
28332.7
4045.06
587.186
89.0218
14.1227
2.34808
0.409596
0.0750196
0.0144345
0.00291849
0.000620199
0.000138518
3.25095e-05
8.01517e-06
2.0752e-06
5.63941e-07
1.60752e-07
4.80392e-08
1.50387e-08
4.92742e-09
1.68826e-09
6.04351e-10
2.25818e-10
8.79852e-11
3.5704e-11
1.50728e-11
6.61259e-12
3.01126e-12
1.42005e-12
7.00471e-13
3.22796e-13
3.14009e+15
6.06291e+15
6.81907e+15
6.47825e+15
5.61136e+15
4.53233e+15
3.43735e+15
2.45211e+15
1.64538e+15
1.03785e+15
6.1486e+14
3.41786e+14
1.78069e+14
8.68428e+13
3.95912e+13
1.6848e+13
6.68224e+12
2.46645e+12
8.46016e+11
2.69327e+11
7.94871e+10
2.17282e+10
5.49784e+09
1.28724e+09
2.78854e+08
5.59016e+07
1.03747e+07
1.78375e+06
284367
42176
6017.41
872.774
132.195
20.9503
3.47943
0.606245
0.110903
0.0213124
0.00430363
0.000913353
0.00020372
4.77469e-05
1.17556e-05
3.03932e-06
8.24756e-07
2.34755e-07
7.00509e-08
2.18967e-08
7.16368e-09
2.45075e-09
8.75964e-10
3.26808e-10
1.2714e-10
5.1514e-11
2.17141e-11
9.51187e-12
4.32508e-12
2.0366e-12
1.00314e-12
4.61487e-13
5.92355e+15
1.04338e+16
1.12588e+16
1.044e+16
8.88786e+15
7.07437e+15
5.29242e+15
3.72607e+15
2.46886e+15
1.53895e+15
9.01947e+14
4.96618e+14
2.56637e+14
1.24319e+14
5.63721e+13
2.38898e+13
9.44629e+12
3.47926e+12
1.19178e+12
3.79103e+11
1.11847e+11
3.05728e+10
7.73703e+09
1.81201e+09
3.92656e+08
7.87382e+07
1.46164e+07
2.51341e+06
400710
59426.7
8476.61
1228.95
186.044
29.4655
4.89012
0.851371
0.155614
0.0298778
0.00602756
0.00127796
0.000284752
6.66672e-05
1.63956e-05
4.23409e-06
1.1476e-06
3.26246e-07
9.72287e-08
3.03525e-08
9.91683e-09
3.38801e-09
1.20929e-09
4.50532e-10
1.75023e-10
7.08135e-11
2.98061e-11
1.30376e-11
5.91964e-12
2.78341e-12
1.36901e-12
6.28722e-13
1.04854e+16
1.6733e+16
1.73378e+16
1.5712e+16
1.31546e+16
1.0319e+16
7.61389e+15
5.28982e+15
3.46146e+15
2.13328e+15
1.23787e+15
6.75884e+14
3.46918e+14
1.67178e+14
7.5518e+13
3.19212e+13
1.26025e+13
4.63844e+12
1.58873e+12
5.05571e+11
1.49266e+11
4.08381e+10
1.03452e+10
2.42527e+09
5.2605e+08
1.05579e+08
1.96135e+07
3.37477e+06
538286
79854.5
11391.9
1651.54
249.971
39.5784
6.56595
1.14261
0.208739
0.0400544
0.00807549
0.00171099
0.000380955
8.91199e-05
2.18989e-05
5.65019e-06
1.52996e-06
4.34507e-07
1.29356e-07
4.03372e-08
1.31638e-08
4.49192e-09
1.60132e-09
5.95824e-10
2.31163e-10
9.34018e-11
3.926e-11
1.71491e-11
7.7755e-12
3.65087e-12
1.79314e-12
8.22066e-13
1.74227e+16
2.51025e+16
2.50264e+16
2.21979e+16
1.82864e+16
1.41364e+16
1.02856e+16
7.05207e+15
4.55933e+15
2.78063e+15
1.59962e+15
8.67511e+14
4.43064e+14
2.12789e+14
9.59271e+13
4.05115e+13
1.59937e+13
5.89053e+12
2.01992e+12
6.43735e+11
1.90374e+11
5.21755e+10
1.32399e+10
3.10899e+09
6.75368e+08
1.35729e+08
2.52442e+07
4.34789e+06
694062
103028
14704.3
2132.27
322.765
51.1036
8.47711
1.47493
0.269385
0.0516764
0.0104149
0.00220574
0.000490883
0.000114776
2.81866e-05
7.26779e-06
1.96657e-06
5.58073e-07
1.66003e-07
5.17184e-08
1.68618e-08
5.74793e-09
2.04687e-09
7.60748e-10
2.94801e-10
1.1897e-10
4.99441e-11
2.17877e-11
9.86555e-12
4.62596e-12
2.26897e-12
1.03839e-12
2.71725e+16
3.53594e+16
3.40231e+16
2.95807e+16
2.39833e+16
1.82672e+16
1.3105e+16
8.87024e+15
5.6717e+15
3.42835e+15
1.95907e+15
1.05754e+15
5.38584e+14
2.5831e+14
1.16427e+14
4.92045e+13
1.94531e+13
7.17825e+12
2.46696e+12
7.8809e+11
2.33637e+11
6.41872e+10
1.63255e+10
3.84172e+09
8.36156e+08
1.68331e+08
3.13546e+07
5.40713e+06
864069
128375
18334
2659.86
402.761
63.7834
10.5819
1.84127
0.336296
0.0645091
0.013
0.00275282
0.000612512
0.000143177
3.51503e-05
9.05994e-06
2.45042e-06
6.95025e-07
2.06621e-07
6.43314e-08
2.0959e-08
7.13898e-09
2.54007e-09
9.43184e-10
3.6514e-10
1.47202e-10
6.17286e-11
2.68977e-11
1.21649e-11
5.69707e-12
2.79084e-12
1.27506e-12
3.97743e+16
4.69504e+16
4.37619e+16
3.7339e+16
2.97919e+16
2.23497e+16
1.58124e+16
1.05769e+16
6.70088e+15
4.02404e+15
2.29e+15
1.23355e+15
6.27858e+14
3.01309e+14
1.36011e+14
5.76047e+13
2.28337e+13
8.45023e+12
2.91303e+12
9.33496e+11
2.77592e+11
7.64865e+10
1.9507e+10
4.60188e+09
1.00386e+09
2.02492e+08
3.77826e+07
6.52523e+06
1.04404e+06
155274
22193.8
3221.89
488.108
77.3301
12.8335
2.23365
0.408051
0.0782872
0.0157788
0.0033416
0.000743564
0.000173815
4.26706e-05
1.09974e-05
2.97401e-06
8.43362e-07
2.50653e-07
7.80142e-08
2.54064e-08
8.6497e-09
3.07589e-09
1.14143e-09
4.4158e-10
1.77882e-10
7.45316e-11
3.24473e-11
1.46606e-11
6.85887e-12
3.35643e-12
1.53113e-12
5.46393e+16
5.8994e+16
5.34668e+16
4.47927e+16
3.51507e+16
2.59692e+16
1.81384e+16
1.2017e+16
7.5659e+15
4.52826e+15
2.57392e+15
1.38703e+15
7.07034e+14
3.4008e+14
1.5395e+14
6.54156e+13
2.60215e+13
9.66544e+12
3.34434e+12
1.07563e+12
3.2098e+11
8.8733e+10
2.26992e+10
5.3697e+09
1.17423e+09
2.37369e+08
4.43731e+07
7.67567e+06
1.22977e+06
183104
26196.1
3805.72
576.912
91.447
15.1833
2.64374
0.483159
0.0927319
0.0186968
0.00396091
0.000881654
0.000206156
5.06239e-05
1.30502e-05
3.52985e-06
1.00113e-06
2.97572e-07
9.2621e-08
3.01626e-08
1.0268e-08
3.65079e-09
1.35445e-09
5.23831e-10
2.10935e-10
8.83402e-11
3.84385e-11
1.73571e-11
8.11494e-12
3.96824e-12
1.80804e-12
7.04559e+16
7.0406e+16
6.2229e+16
5.11586e+16
3.94566e+16
2.87347e+16
1.98697e+16
1.309e+16
8.22381e+15
4.92295e+15
2.80277e+15
1.5141e+15
7.74171e+14
3.73679e+14
1.6981e+14
7.24489e+13
2.89407e+13
1.07953e+13
3.75087e+12
1.21123e+12
3.62819e+11
1.00653e+11
2.58317e+10
6.12849e+09
1.34362e+09
2.72222e+08
5.09878e+07
8.83455e+06
1.41745e+06
211298
30259.3
4399.55
667.386
105.852
17.5848
3.06353
0.560171
0.10757
0.0217001
0.0045997
0.00102441
0.000239673
5.88879e-05
1.51891e-05
4.11066e-06
1.16648e-06
3.46894e-07
1.08023e-07
3.51935e-08
1.19852e-08
4.26269e-09
1.58188e-09
6.11909e-10
2.46433e-10
1.03213e-10
4.49091e-11
2.02771e-11
9.47849e-12
4.63401e-12
2.10999e-12
8.54181e+16
8.00122e+16
6.90277e+16
5.55894e+16
4.21646e+16
3.03882e+16
2.09222e+16
1.37823e+16
8.67753e+15
5.21083e+15
2.97713e+15
1.61438e+15
8.28794e+14
4.01772e+14
1.83404e+14
7.86134e+13
3.15503e+13
1.18231e+13
4.1263e+12
1.33811e+12
4.02413e+11
1.12045e+11
2.88507e+10
6.86504e+09
1.50905e+09
3.0644e+08
5.75103e+07
9.98147e+06
1.60375e+06
239357
34311.7
4992.85
757.924
120.289
19.9952
3.48553
0.637725
0.122541
0.0247369
0.00524716
0.0011695
0.000273838
6.73387e-05
1.7384e-05
4.7089e-06
1.33747e-06
3.9811e-07
1.24086e-07
4.04636e-08
1.37922e-08
4.90964e-09
1.82348e-09
7.05921e-10
2.84505e-10
1.1924e-10
5.19152e-11
2.34536e-11
1.09687e-11
5.36493e-12
2.44317e-12
9.17876e+16
8.65663e+16
7.26278e+16
5.72883e+16
4.30197e+16
3.09727e+16
2.14054e+16
1.41737e+16
8.96857e+15
5.41014e+15
3.10461e+15
1.69112e+15
8.72333e+14
4.24992e+14
1.95e+14
8.40151e+13
3.38896e+13
1.27622e+13
4.47493e+12
1.45756e+12
4.40128e+11
1.23004e+11
3.17797e+10
7.58484e+09
1.67172e+09
3.4026e+08
6.39852e+07
1.11242e+07
1.78992e+06
267465
38379.4
5589.36
849.078
134.842
22.428
3.91201
0.716211
0.137716
0.0278209
0.00590608
0.00131752
0.00030879
7.60114e-05
1.96444e-05
5.32732e-06
1.51495e-06
4.51506e-07
1.40912e-07
4.60111e-08
1.57042e-08
5.59778e-09
2.08187e-09
8.0703e-10
3.25683e-10
1.36675e-10
5.95811e-11
2.69497e-11
1.26186e-11
6.1788e-12
2.81715e-12
9.12961e+16
8.49623e+16
7.04141e+16
5.57372e+16
4.23355e+16
3.08524e+16
2.15255e+16
1.4349e+16
9.12609e+15
5.53114e+15
3.18971e+15
1.74672e+15
9.06075e+14
4.43974e+14
2.04884e+14
8.87737e+13
3.60054e+13
1.363e+13
4.80286e+12
1.57159e+12
4.76578e+11
1.33708e+11
3.46658e+10
8.29941e+09
1.83423e+09
3.74227e+08
7.05172e+07
1.22812e+07
1.979e+06
296084
42529
6198.82
942.321
149.743
24.9211
4.34939
0.796766
0.153304
0.0309919
0.00658439
0.0014701
0.00034488
8.49838e-05
2.19881e-05
5.97018e-06
1.69997e-06
5.07346e-07
1.58567e-07
5.18535e-08
1.77256e-08
6.32829e-09
2.35734e-09
9.15297e-10
3.69978e-10
1.55517e-10
6.79045e-11
3.07637e-11
1.44271e-11
7.07524e-12
3.23162e-12
8.92017e+16
8.243e+16
6.85565e+16
5.47434e+16
4.18819e+16
3.06493e+16
2.14399e+16
1.43331e+16
9.15277e+15
5.57621e+15
3.23497e+15
1.78277e+15
9.30724e+14
4.58954e+14
2.13113e+14
9.28942e+13
3.78938e+13
1.44233e+13
5.10854e+12
1.67959e+12
5.11565e+11
1.44096e+11
3.74929e+10
9.00483e+09
1.99571e+09
4.08165e+08
7.70735e+07
1.34469e+07
2.1701e+06
325081
46742
6818.54
1037.25
164.926
27.463
4.79556
0.878973
0.169219
0.0342305
0.00727751
0.00162612
0.000381811
9.41746e-05
2.43918e-05
6.63048e-06
1.89034e-06
5.64915e-07
1.76811e-07
5.79056e-08
1.98253e-08
7.08936e-09
2.64523e-09
1.02882e-09
4.16584e-10
1.75412e-10
7.67257e-11
3.4821e-11
1.63583e-11
8.03615e-12
3.67796e-12
8.77524e+16
8.04697e+16
6.65474e+16
5.30186e+16
4.05615e+16
2.97563e+16
2.09174e+16
1.40767e+16
9.05586e+15
5.55861e+15
3.24817e+15
1.8025e+15
9.47354e+14
4.70211e+14
2.19731e+14
9.63703e+13
3.95447e+13
1.51363e+13
5.38931e+12
1.78055e+12
5.44738e+11
1.54061e+11
4.02311e+10
9.69357e+09
2.15442e+09
4.41708e+08
8.35838e+07
1.4609e+07
2.3612e+06
354154
50974.6
7442.14
1132.88
180.236
30.0277
5.24593
0.961978
0.18529
0.0375016
0.00797769
0.00178375
0.000419136
0.000103467
2.68237e-05
7.29904e-06
2.08329e-06
6.23336e-07
1.95351e-07
6.40669e-08
2.1967e-08
7.86731e-09
2.94019e-09
1.14543e-09
4.64583e-10
1.9596e-10
8.58629e-11
3.90363e-11
1.83709e-11
9.04075e-12
4.14637e-12
8.65679e+16
7.87272e+16
6.45561e+16
5.12525e+16
3.92328e+16
2.88784e+16
2.03986e+16
1.38016e+16
8.92829e+15
5.51153e+15
3.23973e+15
1.80893e+15
9.568e+14
4.77977e+14
2.248e+14
9.92138e+13
4.09574e+13
1.57666e+13
5.64368e+12
1.87377e+12
5.7583e+11
1.63514e+11
4.28547e+10
1.03589e+10
2.30878e+09
4.74514e+08
8.99807e+07
1.57552e+07
2.55031e+06
382999
55182.8
8063.16
1228.23
195.516
32.5891
5.69593
1.04493
0.201355
0.0407713
0.00867754
0.00194131
0.000456442
0.000112756
2.9255e-05
7.96766e-06
2.27636e-06
6.81833e-07
2.13933e-07
7.02487e-08
2.41187e-08
8.65011e-09
3.23752e-09
1.2632e-09
5.13163e-10
2.16804e-10
9.51537e-11
4.33333e-11
2.04278e-11
1.00702e-11
4.62796e-12
8.56357e+16
7.72784e+16
6.27895e+16
4.9592e+16
3.78926e+16
2.79104e+16
1.97636e+16
1.34235e+16
8.72666e+15
5.41831e+15
3.20525e+15
1.80167e+15
9.59465e+14
4.82557e+14
2.28457e+14
1.01471e+14
4.21435e+13
1.63159e+13
5.87128e+12
1.95886e+12
6.04657e+11
1.72389e+11
4.53422e+10
1.09949e+10
2.45733e+09
5.06262e+08
9.62002e+07
1.6874e+07
2.73547e+06
411316
59323
8675.16
1322.33
210.609
35.121
6.14094
1.127
0.217248
0.0440061
0.00936984
0.00209714
0.000493333
0.00012194
3.16586e-05
8.62868e-06
2.46725e-06
7.39691e-07
2.3232e-07
7.63701e-08
2.62513e-08
9.42677e-09
3.53289e-09
1.38036e-09
5.61573e-10
2.37612e-10
1.04447e-10
4.76403e-11
2.2494e-11
1.11067e-11
5.11424e-12
8.48477e+16
7.60372e+16
6.12213e+16
4.80602e+16
3.66091e+16
2.69527e+16
1.91175e+16
1.30278e+16
8.50776e+15
5.3106e+15
3.15996e+15
1.78721e+15
9.57808e+14
4.84804e+14
2.30971e+14
1.03219e+14
4.31223e+13
1.67878e+13
6.07247e+12
2.03566e+12
6.31098e+11
1.80632e+11
4.76763e+10
1.15965e+10
2.59881e+09
5.36667e+08
1.02184e+08
1.79544e+07
2.91485e+06
438820
63352.6
9271.83
1414.19
225.359
37.5972
6.57641
1.20733
0.232808
0.0471731
0.0100476
0.00224965
0.000529429
0.000130923
3.40091e-05
9.27495e-06
2.65387e-06
7.96252e-07
2.50298e-07
8.23571e-08
2.83381e-08
1.01873e-08
3.82238e-09
1.49532e-09
6.09132e-10
2.58084e-10
1.13605e-10
5.18919e-11
2.45374e-11
1.21338e-11
5.59738e-12
8.41718e+16
7.49702e+16
5.98499e+16
4.66893e+16
3.54303e+16
2.60478e+16
1.84873e+16
1.26274e+16
8.27593e+15
5.18954e+15
3.10427e+15
1.76585e+15
9.52104e+14
4.84896e+14
2.32437e+14
1.04497e+14
4.39071e+13
1.7186e+13
6.2479e+12
2.10418e+12
6.5509e+11
1.88209e+11
4.98438e+10
1.21598e+10
2.73215e+09
5.65477e+08
1.07879e+08
1.89865e+07
3.08673e+06
465241
67231.6
9847.17
1502.88
239.615
39.9926
6.99794
1.28511
0.247879
0.0502408
0.010704
0.00239733
0.00056437
0.000139616
3.62826e-05
9.89984e-06
2.83425e-06
8.50908e-07
2.67668e-07
8.81418e-08
3.03547e-08
1.09225e-08
4.10239e-09
1.6066e-09
6.5521e-10
2.7794e-10
1.22498e-10
5.60269e-11
2.6528e-11
1.3136e-11
6.06986e-12
8.36079e+16
7.4067e+16
5.86697e+16
4.54874e+16
3.43746e+16
2.52185e+16
1.78953e+16
1.2241e+16
8.04547e+15
5.06479e+15
3.04396e+15
1.74069e+15
9.43823e+14
4.83465e+14
2.33096e+14
1.0539e+14
4.45245e+13
1.75178e+13
6.39918e+12
2.16467e+12
6.7663e+11
1.95099e+11
5.18347e+10
1.26814e+10
2.85639e+09
5.92461e+08
1.13236e+08
1.99608e+07
3.24945e+06
490316
70920.3
10395.2
1587.47
253.228
42.2818
7.40102
1.35953
0.262302
0.0531767
0.0113321
0.00253864
0.000597794
0.000147928
3.84556e-05
1.04968e-05
3.00648e-06
9.03073e-07
2.84241e-07
9.36596e-08
3.22781e-08
1.16238e-08
4.36954e-09
1.71281e-09
6.99218e-10
2.96919e-10
1.31007e-10
5.99878e-11
2.84372e-11
1.40987e-11
6.52464e-12
8.31289e+16
7.32955e+16
5.7654e+16
4.44407e+16
3.34414e+16
2.44725e+16
1.73523e+16
1.1879e+16
7.82431e+15
4.9416e+15
2.98214e+15
1.71342e+15
9.33816e+14
4.80904e+14
2.33118e+14
1.05962e+14
4.49966e+13
1.77898e+13
6.52803e+12
2.21747e+12
6.9576e+11
2.01297e+11
5.36431e+10
1.31587e+10
2.97082e+09
6.17439e+08
1.18214e+08
2.08693e+07
3.40161e+06
513817
74384
10910.6
1667.14
266.061
44.4417
7.78162
1.42984
0.275932
0.0559519
0.0119259
0.0026722
0.000629374
0.000155779
4.05068e-05
1.106e-05
3.16888e-06
9.52234e-07
2.99851e-07
9.88546e-08
3.40884e-08
1.22837e-08
4.62093e-09
1.81276e-09
7.40648e-10
3.14796e-10
1.39028e-10
6.37247e-11
3.02404e-11
1.50091e-11
6.95549e-12
8.27217e+16
7.26374e+16
5.6784e+16
4.35374e+16
3.26274e+16
2.38131e+16
1.68651e+16
1.15485e+16
7.61846e+15
4.82434e+15
2.92163e+15
1.68567e+15
9.22937e+14
4.7762e+14
2.32676e+14
1.06282e+14
4.53471e+13
1.80093e+13
6.63645e+12
2.26303e+12
7.12552e+11
2.06806e+11
5.52657e+10
1.35902e+10
3.07484e+09
6.40253e+08
1.22779e+08
2.17049e+07
3.54191e+06
535533
77590.4
11388.4
1741.08
277.985
46.4504
8.13583
1.49531
0.288629
0.0585377
0.0124793
0.00279665
0.000658796
0.00016309
4.24164e-05
1.1584e-05
3.31988e-06
9.97912e-07
3.14346e-07
1.03675e-07
3.57674e-08
1.28955e-08
4.8539e-09
1.90539e-09
7.79041e-10
3.31367e-10
1.46466e-10
6.71921e-11
3.1915e-11
1.58553e-11
7.35661e-12
8.23768e+16
7.20785e+16
5.60438e+16
4.27652e+16
3.19261e+16
2.32394e+16
1.64359e+16
1.12534e+16
7.43174e+15
4.71603e+15
2.8645e+15
1.65869e+15
9.11873e+14
4.73952e+14
2.31924e+14
1.0641e+14
4.55985e+13
1.81837e+13
6.72648e+12
2.30185e+12
7.27101e+11
2.11637e+11
5.67012e+10
1.39746e+10
3.16802e+09
6.60777e+08
1.269e+08
2.24614e+07
3.66924e+06
555279
80510.6
11824.1
1808.59
288.882
48.2878
8.46007
1.55527
0.300264
0.0609081
0.0129866
0.00291075
0.000685768
0.000169791
4.41657e-05
1.20637e-05
3.45805e-06
1.03968e-06
3.2759e-07
1.08077e-07
3.72992e-08
1.34533e-08
5.06621e-09
1.98977e-09
8.14007e-10
3.46458e-10
1.53241e-10
7.03517e-11
3.34417e-11
1.66275e-11
7.72311e-12
8.20871e+16
7.16081e+16
5.54203e+16
4.21128e+16
3.13304e+16
2.27483e+16
1.60651e+16
1.09955e+16
7.26651e+15
4.61877e+15
2.8123e+15
1.63348e+15
9.01187e+14
4.70189e+14
2.30993e+14
1.06403e+14
4.57716e+13
1.83199e+13
6.80017e+12
2.33444e+12
7.39514e+11
2.15805e+11
5.79504e+10
1.43112e+10
3.25003e+09
6.78912e+08
1.30553e+08
2.31337e+07
3.78263e+06
572896
83119.5
12213.9
1869.04
298.65
49.9358
8.7511
1.60912
0.310719
0.0630389
0.0134428
0.00301336
0.000710023
0.000175815
4.5738e-05
1.24947e-05
3.5821e-06
1.07715e-06
3.39462e-07
1.12019e-07
3.86701e-08
1.39521e-08
5.25593e-09
2.06512e-09
8.45219e-10
3.59925e-10
1.59286e-10
7.31714e-11
3.48047e-11
1.73171e-11
8.05083e-12
8.18468e+16
7.12176e+16
5.49031e+16
4.15706e+16
3.08335e+16
2.23363e+16
1.57518e+16
1.07757e+16
7.1242e+15
4.534e+15
2.76615e+15
1.61079e+15
8.91336e+14
4.66572e+14
2.29999e+14
1.06309e+14
4.58848e+13
1.84241e+13
6.8594e+12
2.36128e+12
7.49898e+11
2.19328e+11
5.90143e+10
1.45996e+10
3.32059e+09
6.94572e+08
1.33716e+08
2.37172e+07
3.88123e+06
588236
85394.3
12554.1
1921.86
307.189
51.3778
9.00591
1.6563
0.319884
0.0649075