/*--------------------------------*- C++ -*----------------------------------*\
| =========                 |                                                 |
| \\      /  F ield         | OpenFOAM: The Open Source CFD Toolbox           |
|  \\    /   O peration     | Version:  2406                                  |
|   \\  /    A nd           | Website:  www.openfoam.com                      |
|    \\/     M anipulation  |                                                 |
\*---------------------------------------------------------------------------*/
FoamFile
{
    version     2.0;
    format      ascii;
    arch        "LSB;label=32;scalar=64";
    class       volScalarField;
    location    "2e-07";
    object      He_plus;
}
// * * * * * * * * * * * * * * * * * * * * * * * * * * * * * * * * * * * * * //

dimensions      [0 -3 0 0 0 0 0];

internalField   nonuniform List<scalar> 
5880
(
0.0723776
0.214626
0.343717
0.445028
0.507525
0.526556
0.504686
0.450478
0.375987
0.293916
0.2152
0.14744
0.094368
0.0563005
0.0312242
0.0160461
0.00761348
0.00332299
0.00132963
0.000486431
0.00016244
4.94912e-05
1.37674e-05
3.50306e-06
8.17344e-07
1.75418e-07
3.47452e-08
6.37327e-09
1.08606e-09
1.72932e-10
2.66451e-11
4.19293e-12
6.91084e-13
1.19467e-13
2.16722e-14
4.12693e-15
8.25032e-16
1.73157e-16
3.81488e-17
8.82122e-18
2.14023e-18
5.44634e-19
1.453e-19
4.06191e-20
1.18915e-20
3.64316e-21
1.16733e-21
3.90867e-22
1.36647e-22
4.9833e-23
1.89408e-23
7.4962e-24
3.08617e-24
1.32018e-24
5.86152e-25
2.69833e-25
1.28663e-25
6.33699e-26
3.26426e-26
1.56213e-26
3.41466
10.1082
16.1295
20.7712
23.5252
24.2112
22.9988
20.3315
16.7959
12.9869
9.39847
6.35902
4.01556
2.36122
1.28939
0.651837
0.304024
0.130368
0.0512303
0.018402
0.00603251
0.00180383
0.000492324
0.000122855
2.80973e-05
5.90703e-06
1.14529e-06
2.05488e-07
3.42278e-08
5.32338e-09
8.00913e-10
1.23128e-10
1.98439e-11
3.35746e-12
5.96709e-13
1.11435e-13
2.18692e-14
4.51013e-15
9.77277e-16
2.22453e-16
5.3175e-17
1.33425e-17
3.51246e-18
9.69615e-19
2.80493e-19
8.49689e-20
2.69361e-20
8.92851e-21
3.09168e-21
1.11732e-21
4.21056e-22
1.65297e-22
6.75331e-23
2.86803e-23
1.26469e-23
5.78434e-24
2.74124e-24
1.34241e-24
6.87539e-25
3.27506e-25
103.378
305.47
485.611
621.939
699.602
714.424
672.983
589.728
482.764
369.78
264.992
177.46
110.855
64.447
34.7763
17.3661
7.99935
3.3878
1.31518
0.466887
0.151337
0.0447664
0.0120916
0.00298687
0.00067626
0.000140736
2.70041e-05
4.79305e-06
7.89413e-07
1.21326e-07
1.80299e-08
2.73773e-09
4.35886e-10
7.28741e-11
1.28021e-11
2.36405e-12
4.58942e-13
9.36669e-14
2.00943e-14
4.53045e-15
1.07311e-15
2.66928e-16
6.96894e-17
1.90867e-17
5.48029e-18
1.64837e-18
5.19048e-19
1.70956e-19
5.88411e-20
2.11443e-20
7.92536e-21
3.09558e-21
1.25869e-21
5.32147e-22
2.33664e-22
1.06447e-22
5.02574e-23
2.45263e-23
1.2517e-23
5.94898e-24
2248.3
6630.34
10497.6
13366.3
14928.6
15124.3
14128.1
12274.3
9960.43
7561.69
5369.65
3562.25
2203.64
1268.21
677.256
334.646
152.537
63.9446
24.5848
8.64958
2.78086
0.816553
0.219095
0.053794
0.0121108
0.00250666
0.000478348
8.44242e-05
1.38214e-05
2.11045e-06
3.11433e-07
4.69455e-08
7.41915e-09
1.23111e-09
2.14656e-10
3.93448e-11
7.58234e-12
1.53643e-12
3.27309e-13
7.32945e-14
1.7247e-14
4.26287e-15
1.10616e-15
3.01182e-16
8.59911e-17
2.57255e-17
8.05899e-18
2.64135e-18
9.04889e-19
3.23728e-19
1.20831e-19
4.70075e-20
1.90416e-20
8.02169e-21
3.51045e-21
1.59413e-21
7.50385e-22
3.6518e-22
1.85837e-22
8.81602e-23
37489.7
110314
173872
219987
243843
245007
226920
195448
157235
118333
83291.7
54760.8
33564.1
19134.5
10120.4
4952.71
2236.29
929.049
354.221
123.695
39.5096
11.5373
3.08137
0.753657
0.169121
0.0349029
0.00664228
0.00116903
0.000190804
2.9034e-05
4.26749e-06
6.40489e-07
1.00753e-07
1.66372e-08
2.88626e-09
5.26312e-10
1.00903e-10
2.03404e-11
4.31091e-12
9.60452e-13
2.24882e-13
5.53131e-14
1.42852e-14
3.8717e-15
1.10052e-15
3.2783e-16
1.02277e-16
3.33894e-17
1.13955e-17
4.0621e-18
1.51096e-18
5.85893e-19
2.36593e-19
9.93755e-20
4.33669e-20
1.96412e-20
9.22224e-21
4.47758e-21
2.27314e-21
1.07665e-21
498952
1.46445e+06
2.29658e+06
2.88553e+06
3.17251e+06
3.16007e+06
2.90105e+06
2.47682e+06
1.97528e+06
1.47371e+06
1.0283e+06
670124
407064
229956
120514
58441.8
26155.6
10775.9
4077.49
1414.42
449.255
130.595
34.7567
8.47852
1.89887
0.391305
0.0743765
0.0130743
0.00213102
0.000323708
4.74742e-05
7.10636e-06
1.11452e-06
1.83426e-07
3.17074e-08
5.7601e-09
1.10001e-09
2.20865e-10
4.66221e-11
1.03456e-11
2.41268e-12
5.91101e-13
1.52068e-13
4.10591e-14
1.1628e-14
3.45143e-15
1.07306e-15
3.49141e-16
1.18777e-16
4.2209e-17
1.56539e-17
6.05286e-18
2.43767e-18
1.02126e-18
4.44585e-19
2.00891e-19
9.41177e-20
4.56022e-20
2.31024e-20
1.09263e-20
5.44683e+06
1.59397e+07
2.48543e+07
3.09883e+07
3.37719e+07
3.33319e+07
3.03201e+07
2.56539e+07
2.02788e+07
1.49978e+07
1.03739e+07
6.70132e+06
4.03475e+06
2.259e+06
1.17334e+06
564004
250286
102300
38432.8
13249.3
4186.83
1212.2
321.664
78.3067
17.515
3.60657
0.685185
0.120398
0.0196143
0.00297705
0.000436052
6.51601e-05
1.01978e-05
1.67419e-06
2.88605e-07
5.2273e-08
9.95122e-09
1.99151e-09
4.18979e-10
9.26578e-11
2.15352e-11
5.25822e-12
1.34821e-12
3.62821e-13
1.02419e-13
3.03041e-14
9.3927e-15
3.04702e-15
1.0336e-15
3.66288e-16
1.35482e-16
5.22528e-17
2.09923e-17
8.77419e-18
3.81117e-18
1.71847e-18
8.03484e-19
3.8857e-19
1.96474e-19
9.27922e-20
4.97483e+07
1.45082e+08
2.24742e+08
2.77813e+08
2.99894e+08
2.93116e+08
2.6409e+08
2.21382e+08
1.73422e+08
1.27124e+08
8.71581e+07
5.58075e+07
3.33042e+07
1.84817e+07
9.51518e+06
4.53441e+06
1.99561e+06
809402
301981
103485
32541.5
9385.89
2483.74
603.544
134.85
27.7527
5.27147
0.926201
0.150864
0.0228883
0.00334959
0.000499885
7.81011e-05
1.27956e-05
2.20056e-06
3.97537e-07
7.54691e-08
1.50595e-08
3.15874e-09
6.96421e-10
1.61359e-10
3.92769e-11
1.00396e-11
2.69356e-12
7.58073e-13
2.23644e-13
6.91194e-14
2.23601e-14
7.56447e-15
2.6737e-15
9.86457e-16
3.79539e-16
1.52125e-16
6.34426e-17
2.74986e-17
1.23742e-17
5.77446e-18
2.7875e-18
1.40687e-18
6.63514e-19
3.85978e+08
1.12098e+09
1.72337e+09
2.10999e+09
2.25422e+09
2.18057e+09
1.9451e+09
1.61497e+09
1.25343e+09
9.10507e+08
6.1868e+08
3.92616e+08
2.32218e+08
1.27725e+08
6.51832e+07
3.07978e+07
1.34438e+07
5.41141e+06
2.0052e+06
683115
213768
61423.1
16208.9
3931.32
877.373
180.457
34.2675
6.02
0.980384
0.148677
0.0217406
0.00324053
0.000505479
8.26521e-05
1.41824e-05
2.55576e-06
4.83905e-07
9.62921e-08
2.01392e-08
4.42714e-09
1.02271e-09
2.48198e-10
6.32536e-11
1.69207e-11
4.74831e-12
1.39684e-12
4.30506e-13
1.38891e-13
4.68636e-14
1.6522e-14
6.08076e-15
2.33403e-15
9.33384e-16
3.88412e-16
1.68002e-16
7.54488e-17
3.51414e-17
1.69333e-17
8.53086e-18
4.01755e-18
2.57508e+09
7.44115e+09
1.13395e+10
1.37349e+10
1.45093e+10
1.38818e+10
1.22541e+10
1.00739e+10
7.74454e+09
5.57368e+09
3.7527e+09
2.3599e+09
1.38323e+09
7.5402e+08
3.81432e+08
1.78686e+08
7.7368e+07
3.09079e+07
1.13753e+07
3.85236e+06
1.19959e+06
343333
90333
21863.1
4872.4
1001.26
190.024
33.3687
5.43182
0.823219
0.120257
0.0178999
0.00278729
0.000454819
7.78624e-05
1.39958e-05
2.64283e-06
5.2442e-07
1.09364e-07
2.39702e-08
5.52088e-09
1.33585e-09
3.39432e-10
9.05327e-11
2.53318e-11
7.43082e-12
2.28381e-12
7.34811e-13
2.47281e-13
8.69576e-14
3.1925e-14
1.22249e-14
4.8776e-15
2.02527e-15
8.74158e-16
3.91791e-16
1.82131e-16
8.76024e-17
4.40532e-17
2.0715e-17
1.49244e+10
4.28593e+10
6.46436e+10
7.73598e+10
8.07271e+10
7.63408e+10
6.66592e+10
5.42406e+10
4.12915e+10
2.94349e+10
1.9633e+10
1.22321e+10
7.10403e+09
3.83758e+09
1.92417e+09
8.93717e+08
3.83832e+08
1.52184e+08
5.56284e+07
1.87267e+07
5.80181e+06
1.65366e+06
433676
104704
23292.2
4780.17
906.305
159.014
25.8625
3.91561
0.571235
0.0848835
0.0131914
0.00214762
0.000366739
6.57447e-05
1.23795e-05
2.44931e-06
5.09258e-07
1.1128e-07
2.55522e-08
6.16385e-09
1.56146e-09
4.15223e-10
1.15841e-10
3.38823e-11
1.03841e-11
3.33185e-12
1.11825e-12
3.92217e-13
1.43635e-13
5.48686e-14
2.1841e-14
9.04856e-15
3.89721e-15
1.74312e-15
8.0873e-16
3.88264e-16
1.94888e-16
9.14947e-17
7.58135e+10
2.1602e+11
3.21899e+11
3.80041e+11
3.9136e+11
3.65563e+11
3.156e+11
2.54098e+11
1.91492e+11
1.35174e+11
8.92955e+10
5.51076e+10
3.17062e+10
1.69709e+10
8.43346e+09
3.88355e+09
1.65438e+09
6.50996e+08
2.36331e+08
7.90754e+07
2.43707e+07
6.91586e+06
1.80723e+06
435088
96571.9
19783.7
3745.34
656.252
106.592
16.1147
2.34684
0.348021
0.0539596
0.0087625
0.00149224
0.00026674
5.00759e-05
9.87717e-06
2.04724e-06
4.45945e-07
1.02075e-07
2.4546e-08
6.1988e-09
1.64333e-09
4.57081e-10
1.33297e-10
4.07345e-11
1.30334e-11
4.3624e-12
1.52604e-12
5.57428e-13
2.12413e-13
8.43529e-14
3.48671e-14
1.49844e-14
6.68809e-15
3.09676e-15
1.4839e-15
7.43439e-16
3.48436e-16
3.40293e+11
9.59968e+11
1.41025e+12
1.63996e+12
1.66482e+12
1.53504e+12
1.30972e+12
1.04303e+12
7.7791e+11
5.4361e+11
3.55568e+11
2.17306e+11
1.23836e+11
6.56677e+10
3.23393e+10
1.47639e+10
6.23825e+09
2.4362e+09
8.78322e+08
2.92075e+08
8.95321e+07
2.52903e+07
6.58322e+06
1.57981e+06
349718
71481.8
13505.9
2362.16
382.985
57.7901
8.39827
1.24243
0.192131
0.0311124
0.00528269
0.000941382
0.000176171
3.4637e-05
7.15594e-06
1.55369e-06
3.54484e-07
8.49687e-08
2.13897e-08
5.65277e-09
1.56746e-09
4.55742e-10
1.38863e-10
4.43042e-11
1.4788e-11
5.15923e-12
1.87968e-12
7.1448e-13
2.8305e-13
1.16728e-13
5.00535e-14
2.22933e-14
1.03013e-14
4.92664e-15
2.46356e-15
1.1526e-15
1.3599e+12
3.7869e+12
5.47071e+12
6.25547e+12
6.25368e+12
5.68839e+12
4.79468e+12
3.77566e+12
2.78598e+12
1.92675e+12
1.2475e+12
7.54828e+11
4.25973e+11
2.23753e+11
1.09191e+11
4.94183e+10
2.07112e+10
8.02726e+09
2.8741e+09
9.49824e+08
2.89561e+08
8.14023e+07
2.11025e+07
5.04627e+06
1.11371e+06
227040
42795.2
7468.1
1208.17
181.893
26.3684
3.89044
0.599903
0.0968516
0.0163933
0.00291191
0.000543154
0.000106437
2.19169e-05
4.74287e-06
1.07856e-06
2.57688e-07
6.46618e-08
1.70348e-08
4.70904e-09
1.36504e-09
4.14704e-10
1.31934e-10
4.39153e-11
1.52801e-11
5.5526e-12
2.10531e-12
8.32037e-13
3.42331e-13
1.46467e-13
6.50955e-14
3.00181e-14
1.43283e-14
7.15117e-15
3.33969e-15
4.87393e+12
1.33446e+13
1.89027e+13
2.12153e+13
2.08661e+13
1.87138e+13
1.55772e+13
1.21256e+13
8.8494e+12
6.05513e+12
3.87969e+12
2.3236e+12
1.29829e+12
6.75435e+11
3.26597e+11
1.46534e+11
6.09148e+10
2.34325e+10
8.33241e+09
2.73666e+09
8.29703e+08
2.32118e+08
5.99187e+07
1.42754e+07
3.14033e+06
638328
120000
20888.3
3370.92
506.226
73.1898
10.7677
1.6554
0.266423
0.0449507
0.00795848
0.00147959
0.000288984
5.93093e-05
1.27925e-05
2.89964e-06
6.90555e-07
1.72734e-07
4.53649e-08
1.25025e-08
3.61344e-09
1.09461e-09
3.4726e-10
1.15274e-10
4.0003e-11
1.44995e-11
5.48407e-12
2.16221e-12
8.87579e-13
3.78918e-13
1.68051e-13
7.73378e-14
3.68438e-14
1.83539e-14
8.5558e-15
1.57811e+13
4.22587e+13
5.85035e+13
6.43347e+13
6.21981e+13
5.49758e+13
4.51774e+13
3.47536e+13
2.5079e+13
1.69729e+13
1.0759e+13
6.37666e+12
3.527e+12
1.8172e+12
8.70621e+11
3.87255e+11
1.59694e+11
6.09777e+10
2.15377e+10
7.03094e+09
2.12013e+09
5.9029e+08
1.51733e+08
3.6015e+07
7.89635e+06
1.60026e+06
300003
52083.8
8383.54
1255.72
181.055
26.56
4.071
0.653167
0.109855
0.0193875
0.00359284
0.000699476
0.000143097
3.0767e-05
6.95201e-06
1.65052e-06
4.11603e-07
1.07776e-07
2.96163e-08
8.53527e-09
2.57838e-09
8.15773e-10
2.70087e-10
9.34886e-11
3.38025e-11
1.27545e-11
5.01714e-12
2.05496e-12
8.75412e-13
3.8745e-13
1.77955e-13
8.46183e-14
4.20754e-14
1.95779e-14
4.64869e+13
1.2092e+14
1.63034e+14
1.75371e+14
1.6654e+14
1.45024e+14
1.17628e+14
8.94015e+13
6.37729e+13
4.26776e+13
2.67578e+13
1.56908e+13
8.59023e+12
4.38293e+12
2.08069e+12
9.17625e+11
3.75441e+11
1.42334e+11
4.99483e+10
1.62111e+10
4.86311e+09
1.3478e+09
3.45049e+08
8.16065e+07
1.7835e+07
3.6039e+06
673803
116679
18733.8
2798.93
402.498
58.8812
8.99921
1.43963
0.241406
0.0424761
0.0078478
0.00152326
0.000310692
6.66028e-05
1.50052e-05
3.55218e-06
8.83318e-07
2.30648e-07
6.32075e-08
1.81674e-08
5.47379e-09
1.72745e-09
5.7051e-10
1.97003e-10
7.1064e-11
2.67535e-11
1.05008e-11
4.29193e-12
1.82463e-12
8.05981e-13
3.69485e-13
1.75372e-13
8.70476e-14
4.04308e-14
1.2545e+14
3.14291e+14
4.11186e+14
4.32017e+14
4.02785e+14
3.45492e+14
2.76538e+14
2.07608e+14
1.46355e+14
9.68228e+13
6.003e+13
3.48234e+13
1.88691e+13
9.53434e+12
4.48543e+12
1.96178e+12
7.96602e+11
2.99951e+11
1.04621e+11
3.37725e+10
1.00831e+10
2.78283e+09
7.09801e+08
1.67325e+08
3.64622e+07
7.34835e+06
1.37051e+06
236767
37927.9
5653.61
811.064
118.351
18.0413
2.87844
0.481369
0.0844676
0.0155634
0.00301263
0.000612807
0.000131014
2.94382e-05
6.95061e-06
1.72393e-06
4.49001e-07
1.22738e-07
3.51918e-08
1.05778e-08
3.33038e-09
1.09738e-09
3.78094e-10
1.36092e-10
5.11267e-11
2.00264e-11
8.16898e-12
3.46622e-12
1.52826e-12
6.9934e-13
3.31361e-13
1.64197e-13
7.61302e-14
3.12206e+14
7.45759e+14
9.43375e+14
9.67034e+14
8.84946e+14
7.4764e+14
5.90476e+14
4.37789e+14
3.04926e+14
1.99377e+14
1.22218e+14
7.01312e+13
3.76122e+13
1.8824e+13
8.77838e+12
3.809e+12
1.53574e+12
5.74639e+11
1.99327e+11
6.40358e+10
1.90388e+10
5.23543e+09
1.33116e+09
3.12934e+08
6.80244e+07
1.36787e+07
2.54588e+06
438955
70180.5
10440.8
1494.77
217.644
33.103
5.2693
0.879132
0.153899
0.028289
0.00546288
0.00110858
0.000236448
5.30042e-05
1.24857e-05
3.08968e-06
8.0289e-07
2.18987e-07
6.26504e-08
1.87905e-08
5.90358e-09
1.94122e-09
6.6747e-10
2.39772e-10
8.99014e-11
3.51476e-11
1.43106e-11
6.06126e-12
2.66774e-12
1.2187e-12
5.76494e-13
2.85207e-13
1.3201e-13
7.20723e+14
1.62294e+15
1.97869e+15
1.97758e+15
1.7763e+15
1.47816e+15
1.15184e+15
8.43237e+14
5.80167e+14
3.74856e+14
2.27171e+14
1.28949e+14
6.84616e+13
3.39479e+13
1.57e+13
6.76228e+12
2.70895e+12
1.00801e+12
3.47992e+11
1.11345e+11
3.29915e+10
9.04604e+09
2.29438e+09
5.38225e+08
1.16779e+08
2.34432e+07
4.35647e+06
750010
119735
17786.1
2542.23
369.513
56.0991
8.91287
1.48414
0.259299
0.047568
0.00916746
0.00185662
0.0003952
8.84139e-05
2.07853e-05
5.13325e-06
1.33131e-06
3.62401e-07
1.03479e-07
3.09763e-08
9.71361e-09
3.18805e-09
1.09415e-09
3.92331e-10
1.46839e-10
5.7307e-11
2.32927e-11
9.84897e-12
4.32767e-12
1.97381e-12
9.32228e-13
4.60491e-13
2.12781e-13
1.55066e+15
3.25318e+15
3.81302e+15
3.71493e+15
3.27608e+15
2.68567e+15
2.0647e+15
1.49222e+15
1.01399e+15
6.47332e+14
3.87841e+14
2.17816e+14
1.14522e+14
5.6295e+13
2.58368e+13
1.10555e+13
4.40429e+12
1.6313e+12
5.61039e+11
1.7896e+11
5.28938e+10
1.44739e+10
3.66504e+09
8.58588e+08
1.86073e+08
3.73151e+07
6.92762e+06
1.19153e+06
190038
28200.4
4026.17
584.453
88.6086
14.0574
2.33725
0.407711
0.0746751
0.0143684
0.00290515
0.00061737
0.000137888
3.23619e-05
7.97884e-06
2.06581e-06
5.61394e-07
1.60027e-07
4.7823e-08
1.49711e-08
4.90532e-09
1.6807e-09
6.01648e-10
2.24809e-10
8.75927e-11
3.55449e-11
1.50057e-11
6.58318e-12
2.99788e-12
1.41375e-12
6.97309e-13
3.21667e-13
3.1202e+15
6.03044e+15
6.78431e+15
6.44582e+15
5.58351e+15
4.50996e+15
3.42046e+15
2.44011e+15
1.63736e+15
1.03281e+15
6.11885e+14
3.40138e+14
1.77213e+14
8.6427e+13
3.94023e+13
1.67678e+13
6.65054e+12
2.45478e+12
8.42023e+11
2.68059e+11
7.91136e+10
2.16263e+10
5.47208e+09
1.28122e+09
2.77551e+08
5.56403e+07
1.03262e+07
1.77541e+06
283037
41978.5
5989.25
868.703
131.58
20.8531
3.46333
0.603448
0.110393
0.0212145
0.00428391
0.000909179
0.000202791
4.75296e-05
1.17022e-05
3.02554e-06
8.21024e-07
2.33694e-07
6.9735e-08
2.17982e-08
7.13147e-09
2.43974e-09
8.72036e-10
3.25344e-10
1.26571e-10
5.12838e-11
2.16172e-11
9.46945e-12
4.3058e-12
2.02754e-12
9.98593e-13
4.59867e-13
5.88444e+15
1.03776e+16
1.12012e+16
1.03875e+16
8.8435e+15
7.03925e+15
5.26627e+15
3.70775e+15
2.45677e+15
1.53145e+15
8.97565e+14
4.94214e+14
2.55399e+14
1.23722e+14
5.61021e+13
2.37757e+13
9.40131e+12
3.46274e+12
1.18614e+12
3.77312e+11
1.1132e+11
3.0429e+10
7.70068e+09
1.80351e+09
3.90815e+08
7.83693e+07
1.45479e+07
2.50164e+06
398832
59147.8
8436.86
1223.21
185.177
29.3286
4.86746
0.847435
0.154897
0.0297403
0.0059999
0.00127211
0.000283451
6.63632e-05
1.6321e-05
4.21485e-06
1.1424e-06
3.24769e-07
9.67892e-08
3.02156e-08
9.87214e-09
3.37276e-09
1.20385e-09
4.48509e-10
1.74238e-10
7.04962e-11
2.96727e-11
1.29793e-11
5.89318e-12
2.771e-12
1.3628e-12
6.26506e-13
1.04133e+16
1.66424e+16
1.72486e+16
1.56325e+16
1.30886e+16
1.02675e+16
7.57609e+15
5.26368e+15
3.44444e+15
2.12284e+15
1.23183e+15
6.72601e+14
3.45239e+14
1.66372e+14
7.51551e+13
3.17683e+13
1.25423e+13
4.61635e+12
1.58118e+12
5.03176e+11
1.4856e+11
4.06454e+10
1.02964e+10
2.41387e+09
5.23579e+08
1.05083e+08
1.95215e+07
3.35893e+06
535759
79479.1
11338.4
1643.81
248.804
39.3942
6.53548
1.13732
0.207775
0.0398699
0.00803838
0.00170314
0.000379212
8.87129e-05
2.17991e-05
5.62449e-06
1.52301e-06
4.32537e-07
1.2877e-07
4.01548e-08
1.31044e-08
4.47166e-09
1.59411e-09
5.93143e-10
2.30123e-10
9.29823e-11
3.90838e-11
1.70722e-11
7.74065e-12
3.63455e-12
1.78498e-12
8.19157e-13
1.72984e+16
2.49664e+16
2.48972e+16
2.20851e+16
1.81942e+16
1.40655e+16
1.02343e+16
7.01708e+15
4.53682e+15
2.76697e+15
1.59179e+15
8.63285e+14
4.40914e+14
2.1176e+14
9.5465e+13
4.0317e+13
1.59172e+13
5.86241e+12
2.0103e+12
6.40679e+11
1.89472e+11
5.19288e+10
1.31774e+10
3.09434e+09
6.72188e+08
1.35091e+08
2.51255e+07
4.32745e+06
690798
102543
14635.1
2122.27
321.257
50.8655
8.43772
1.4681
0.26814
0.0514381
0.010367
0.00219562
0.000488635
0.000114251
2.80579e-05
7.23468e-06
1.95763e-06
5.55539e-07
1.65251e-07
5.14842e-08
1.67855e-08
5.72196e-09
2.03764e-09
7.57318e-10
2.93473e-10
1.18434e-10
4.97194e-11
2.16897e-11
9.82122e-12
4.60521e-12
2.25861e-12
1.0347e-12
2.69717e+16
3.51676e+16
3.38467e+16
2.94295e+16
2.38617e+16
1.81751e+16
1.30394e+16
8.82608e+15
5.64362e+15
3.41146e+15
1.94946e+15
1.05238e+15
5.35965e+14
2.57058e+14
1.15865e+14
4.89678e+13
1.93598e+13
7.14393e+12
2.45519e+12
7.84342e+11
2.32528e+11
6.38833e+10
1.62483e+10
3.82359e+09
8.32214e+08
1.67538e+08
3.12069e+07
5.38168e+06
860001
127770
18247.7
2647.38
400.877
63.486
10.5327
1.83273
0.334741
0.0642115
0.0129402
0.00274018
0.000609704
0.000142522
3.49898e-05
9.01863e-06
2.43927e-06
6.91865e-07
2.05683e-07
6.40397e-08
2.08641e-08
7.10668e-09
2.52859e-09
9.38924e-10
3.63492e-10
1.46538e-10
6.14504e-11
2.67766e-11
1.21101e-11
5.67146e-12
2.77805e-12
1.27051e-12
3.947e+16
4.66954e+16
4.35336e+16
3.71469e+16
2.964e+16
2.22366e+16
1.5733e+16
1.05241e+16
6.66763e+15
4.00418e+15
2.27875e+15
1.22751e+15
6.248e+14
2.99847e+14
1.35353e+14
5.73271e+13
2.2724e+13
8.40976e+12
2.89912e+12
9.29049e+11
2.76273e+11
7.61238e+10
1.94146e+10
4.58013e+09
9.99117e+08
2.01537e+08
3.76045e+07
6.49448e+06
1.03912e+06
154541
22089.3
3206.76
485.823
76.9692
12.7738
2.22328
0.406162
0.0779258
0.0157061
0.00332624
0.000740153
0.000173019
4.24756e-05
1.09472e-05
2.96046e-06
8.39526e-07
2.49514e-07
7.76601e-08
2.52912e-08
8.61053e-09
3.06197e-09
1.13627e-09
4.39584e-10
1.77078e-10
7.41951e-11
3.23009e-11
1.45945e-11
6.82798e-12
3.34103e-12
1.52565e-12
5.42054e+16
5.86724e+16
5.31855e+16
4.45606e+16
3.49705e+16
2.58374e+16
1.8047e+16
1.19569e+16
7.5283e+15
4.50588e+15
2.56126e+15
1.38024e+15
7.03585e+14
3.38428e+14
1.53205e+14
6.51e+13
2.58963e+13
9.61909e+12
3.32834e+12
1.0705e+12
3.19452e+11
8.83117e+10
2.25916e+10
5.34429e+09
1.16868e+09
2.36248e+08
4.41637e+07
7.63946e+06
1.22397e+06
182240
26072.5
3787.84
574.21
91.0201
15.1126
2.63147
0.480922
0.0923037
0.0186107
0.0039427
0.000877609
0.000205212
5.03925e-05
1.29906e-05
3.51376e-06
9.96578e-07
2.9622e-07
9.22005e-08
3.00258e-08
1.02215e-08
3.63425e-09
1.34832e-09
5.21462e-10
2.09981e-10
8.79409e-11
3.82648e-11
1.72787e-11
8.07833e-12
3.95e-12
1.80156e-12
6.98677e+16
7.0018e+16
6.18978e+16
5.08914e+16
3.92534e+16
2.85884e+16
1.97695e+16
1.30245e+16
8.18293e+15
4.8986e+15
2.78897e+15
1.50668e+15
7.70392e+14
3.71861e+14
1.68987e+14
7.20989e+13
2.88013e+13
1.07435e+13
3.73292e+12
1.20545e+12
3.61091e+11
1.00175e+11
2.57092e+10
6.09947e+09
1.33726e+09
2.70936e+08
5.0747e+07
8.79285e+06
1.41076e+06
210300
30116.5
4378.86
664.26
105.358
17.5029
3.0493
0.557577
0.107073
0.0216002
0.00457855
0.00101972
0.000238576
5.86188e-05
1.51198e-05
4.09193e-06
1.16117e-06
3.45318e-07
1.07533e-07
3.50339e-08
1.19309e-08
4.24338e-09
1.57473e-09
6.09141e-10
2.45319e-10
1.02746e-10
4.47061e-11
2.01854e-11
9.4357e-12
4.61268e-12
2.10241e-12
8.4504e+16
7.95613e+16
6.86543e+16
5.52968e+16
4.19469e+16
3.02335e+16
2.08168e+16
1.37133e+16
8.63438e+15
5.18504e+15
2.96247e+15
1.60646e+15
8.24744e+14
3.99816e+14
1.82514e+14
7.82333e+13
3.13983e+13
1.17663e+13
4.10653e+12
1.33171e+12
4.00495e+11
1.11512e+11
2.87137e+10
6.8325e+09
1.50191e+09
3.04991e+08
5.72386e+07
9.93433e+06
1.59617e+06
238226
34149.8
4969.37
754.372
119.727
19.9021
3.46935
0.634772
0.121975
0.024623
0.00522305
0.00116414
0.000272585
6.70312e-05
1.73048e-05
4.68746e-06
1.33139e-06
3.96302e-07
1.23523e-07
4.02802e-08
1.37298e-08
4.88742e-09
1.81524e-09
7.0273e-10
2.83219e-10
1.18701e-10
5.16806e-11
2.33476e-11
1.09192e-11
5.34024e-12
2.43439e-12
1.00586e+17
8.59183e+16
7.22279e+16
5.69859e+16
4.27981e+16
3.08154e+16
2.12976e+16
1.41028e+16
8.92395e+15
5.38336e+15
3.0893e+15
1.68282e+15
8.68067e+14
4.22921e+14
1.94053e+14
8.36086e+13
3.37261e+13
1.27008e+13
4.45348e+12
1.45059e+12
4.38028e+11
1.22419e+11
3.16287e+10
7.54887e+09
1.6638e+09
3.3865e+08
6.36827e+07
1.10716e+07
1.78146e+06
266200
38198.1
5563.07
845.097
134.212
22.3235
3.89385
0.712896
0.13708
0.0276928
0.00587895
0.00131148
0.000307378
7.56645e-05
1.95549e-05
5.30309e-06
1.50807e-06
4.49458e-07
1.40273e-07
4.58029e-08
1.56331e-08
5.57249e-09
2.07247e-09
8.03387e-10
3.24214e-10
1.36059e-10
5.93123e-11
2.68281e-11
1.25617e-11
6.15041e-12
2.80705e-12
9.66102e+16
8.45052e+16
7.00433e+16
5.54499e+16
4.212e+16
3.06964e+16
2.14173e+16
1.42772e+16
9.08066e+15
5.50374e+15
3.17398e+15
1.73814e+15
9.01641e+14
4.41809e+14
2.03888e+14
8.83438e+13
3.58316e+13
1.35644e+13
4.77981e+12
1.56406e+12
4.74303e+11
1.33071e+11
3.4501e+10
8.26002e+09
1.82553e+09
3.72456e+08
7.01837e+07
1.22231e+07
1.96964e+06
294683
42328
6169.65
937.902
149.043
24.805
4.3292
0.793078
0.152597
0.0308492
0.00655415
0.00146337
0.000343304
8.45963e-05
2.18881e-05
5.94306e-06
1.69226e-06
5.05048e-07
1.5785e-07
5.16192e-08
1.76455e-08
6.29975e-09
2.34671e-09
9.11173e-10
3.68312e-10
1.54816e-10
6.75987e-11
3.06251e-11
1.43622e-11
7.04279e-12
3.22007e-12
9.29754e+16
8.20395e+16
6.82001e+16
5.44609e+16
4.16673e+16
3.04935e+16
2.13318e+16
1.42613e+16
9.1072e+15
5.54859e+15
3.21901e+15
1.77401e+15
9.26168e+14
4.56715e+14
2.12077e+14
9.24441e+13
3.77107e+13
1.43539e+13
5.08401e+12
1.67155e+12
5.09122e+11
1.43409e+11
3.73145e+10
8.96208e+09
1.98624e+09
4.06232e+08
7.67088e+07
1.33833e+07
2.15984e+06
323543
46521.1
6786.44
1032.38
164.155
27.335
4.77329
0.874904
0.168438
0.0340729
0.00724411
0.00161868
0.000380067
9.37454e-05
2.42809e-05
6.60039e-06
1.88178e-06
5.6236e-07
1.76012e-07
5.76444e-08
1.97359e-08
7.05744e-09
2.63333e-09
1.0242e-09
4.14712e-10
1.74624e-10
7.6381e-11
3.46645e-11
1.62849e-11
7.99939e-12
3.66486e-12
9.08114e+16
8.01082e+16
6.62047e+16
5.27475e+16
4.03556e+16
2.96062e+16
2.08125e+16
1.40065e+16
9.01086e+15
5.53109e+15
3.23215e+15
1.79364e+15
9.42714e+14
4.67915e+14
2.18662e+14
9.5903e+13
3.93535e+13
1.50634e+13
5.36341e+12
1.77202e+12
5.42134e+11
1.53326e+11
4.00396e+10
9.64752e+09
2.1442e+09
4.39616e+08
8.31881e+07
1.45399e+07
2.35003e+06
352477
50733.6
7407.09
1127.56
179.393
29.8878
5.22157
0.957525
0.184435
0.0373291
0.00794108
0.00177559
0.000417223
0.000102996
2.67018e-05
7.26595e-06
2.07386e-06
6.2052e-07
1.9447e-07
6.37783e-08
2.18681e-08
7.83195e-09
2.92699e-09
1.14029e-09
4.625e-10
1.95082e-10
8.54781e-11
3.88614e-11
1.82887e-11
8.9995e-12
4.13165e-12
8.92141e+16
7.83855e+16
6.42261e+16
5.09918e+16
3.90341e+16
2.87327e+16
2.02962e+16
1.37326e+16
8.88384e+15
5.4842e+15
3.22373e+15
1.80003e+15
9.52111e+14
4.75642e+14
2.23705e+14
9.87324e+13
4.07593e+13
1.56906e+13
5.61654e+12
1.86478e+12
5.73076e+11
1.62734e+11
4.26506e+10
1.03096e+10
2.29782e+09
4.72264e+08
8.95545e+07
1.56806e+07
2.53824e+06
381185
54921.9
8025.18
1222.47
194.602
32.4373
5.66947
1.0401
0.200425
0.0405837
0.00863773
0.00193243
0.000454359
0.000112243
2.91221e-05
7.93155e-06
2.26606e-06
6.78756e-07
2.12969e-07
6.99327e-08
2.40104e-08
8.61129e-09
3.223e-09
1.25754e-09
5.10866e-10
2.15834e-10
9.47282e-11
4.31395e-11
2.03366e-11
1.00244e-11
4.61159e-12
8.80106e+16
7.69507e+16
6.24701e+16
4.93408e+16
3.77012e+16
2.777e+16
1.96645e+16
1.33565e+16
8.68328e+15
5.39147e+15
3.18943e+15
1.79281e+15
9.54762e+14
4.80199e+14
2.27344e+14
1.00978e+14
4.19396e+13
1.62371e+13
5.84304e+12
1.94946e+12
6.01764e+11
1.71566e+11
4.51263e+10
1.09426e+10
2.44567e+09
5.03862e+08
9.57445e+07
1.67941e+07
2.72252e+06
409368
59042.4
8634.29
1316.12
209.624
34.9573
6.11241
1.12178
0.216245
0.0438036
0.00932686
0.00208754
0.000491082
0.000121385
3.15149e-05
8.5896e-06
2.4561e-06
7.36355e-07
2.31274e-07
7.60269e-08
2.61335e-08
9.38453e-09
3.51708e-09
1.37419e-09
5.59064e-10
2.36551e-10
1.03981e-10
4.74277e-11
2.23938e-11
1.10563e-11
5.09622e-12
8.70289e+16
7.57201e+16
6.0911e+16
4.78176e+16
3.64247e+16
2.68173e+16
1.90218e+16
1.29629e+16
8.46547e+15
5.28429e+15
3.14436e+15
1.77841e+15
9.5311e+14
4.82433e+14
2.29846e+14
1.02718e+14
4.29135e+13
1.67067e+13
6.04324e+12
2.02589e+12
6.28077e+11
1.79769e+11
4.74491e+10
1.15414e+10
2.58647e+09
5.34121e+08
1.01699e+08
1.78694e+07
2.90104e+06
436741
63052.8
9228.13
1407.55
224.304
37.4219
6.54585
1.20173
0.231733
0.046956
0.0100015
0.00223936
0.000527014
0.000130328
3.38548e-05
9.23297e-06
2.64188e-06
7.92664e-07
2.49172e-07
8.19873e-08
2.82111e-08
1.01417e-08
3.80529e-09
1.48865e-09
6.06415e-10
2.56933e-10
1.13099e-10
5.16608e-11
2.44284e-11
1.20788e-11
5.57771e-12
8.62075e+16
7.46615e+16
5.95475e+16
4.64542e+16
3.52522e+16
2.59172e+16
1.83949e+16
1.25645e+16
8.23481e+15
5.16383e+15
3.08894e+15
1.75716e+15
9.47433e+14
4.82524e+14
2.31303e+14
1.03989e+14
4.36944e+13
1.7103e+13
6.21781e+12
2.09408e+12
6.51953e+11
1.8731e+11
4.96062e+10
1.2102e+10
2.71917e+09
5.62794e+08
1.07367e+08
1.88965e+07
3.07211e+06
463037
66913.4
9800.75
1495.82
238.494
39.8062
6.96542
1.27916
0.246735
0.0500095
0.0106548
0.00238637
0.000561796
0.000138981
3.6118e-05
9.85504e-06
2.82145e-06
8.47076e-07
2.66465e-07
8.77464e-08
3.02188e-08
1.08737e-08
4.08408e-09
1.59943e-09
6.52292e-10
2.76703e-10
1.21953e-10
5.57778e-11
2.64103e-11
1.30766e-11
6.0486e-12
8.55313e+16
7.3765e+16
5.8374e+16
4.52588e+16
3.42021e+16
2.50922e+16
1.78059e+16
1.218e+16
8.0055e+15
5.0397e+15
3.02892e+15
1.73212e+15
9.39191e+14
4.81099e+14
2.3196e+14
1.04878e+14
4.43087e+13
1.74332e+13
6.36835e+12
2.15427e+12
6.73388e+11
1.94167e+11
5.15875e+10
1.2621e+10
2.84281e+09
5.89649e+08
1.12699e+08
1.98662e+07
3.23405e+06
487992
70584.6
10346.2
1580.02
252.043
42.0846
7.36663
1.35324
0.261091
0.052932
0.0112802
0.00252703
0.000595067
0.000147255
3.82811e-05
1.04493e-05
2.99291e-06
8.99007e-07
2.82964e-07
9.32397e-08
3.21337e-08
1.15719e-08
4.35005e-09
1.70518e-09
6.96107e-10
2.956e-10
1.30426e-10
5.97215e-11
2.83113e-11
1.40351e-11
6.50184e-12
8.49636e+16
7.2999e+16
5.73639e+16
4.42178e+16
3.32738e+16
2.43501e+16
1.72657e+16
1.18199e+16
7.78545e+15
4.91712e+15
2.96741e+15
1.70498e+15
9.29232e+14
4.7855e+14
2.31981e+14
1.05447e+14
4.47784e+13
1.77038e+13
6.49657e+12
2.20682e+12
6.92426e+11
2.00335e+11
5.33873e+10
1.30961e+10
2.9567e+09
6.14508e+08
1.17654e+08
2.07704e+07
3.38549e+06
511381
74031.9
10859.1
1659.31
264.815
44.2344
7.74545
1.42322
0.274657
0.0556943
0.0118712
0.00265997
0.000626504
0.00015507
4.03231e-05
1.10099e-05
3.15458e-06
9.47948e-07
2.98505e-07
9.84116e-08
3.3936e-08
1.22289e-08
4.60033e-09
1.8047e-09
7.37356e-10
3.13399e-10
1.38412e-10
6.34422e-11
3.01067e-11
1.49415e-11
6.93124e-12
8.44854e+16
7.23453e+16
5.64988e+16
4.33194e+16
3.24641e+16
2.36942e+16
1.6781e+16
1.1491e+16
7.58064e+15
4.80045e+15
2.9072e+15
1.67736e+15
9.18404e+14
4.75282e+14
2.31541e+14
1.05764e+14
4.51271e+13
1.79222e+13
6.60445e+12
2.25215e+12
7.09136e+11
2.05817e+11
5.5002e+10
1.35255e+10
3.06023e+09
6.37213e+08
1.22197e+08
2.1602e+07
3.52513e+06
532994
77223.1
11334.7
1732.9
276.683
46.2338
8.09801
1.48838
0.287296
0.0582683
0.012422
0.00278385
0.000655791
0.000162348
4.2224e-05
1.15316e-05
3.3049e-06
9.93422e-07
3.12935e-07
1.03211e-07
3.56075e-08
1.28379e-08
4.83228e-09
1.89692e-09
7.75581e-10
3.29897e-10
1.45817e-10
6.68947e-11
3.17741e-11
1.5784e-11
7.33102e-12
8.40833e+16
7.17901e+16
5.57627e+16
4.25513e+16
3.17666e+16
2.31234e+16
1.6354e+16
1.11974e+16
7.39486e+15
4.69268e+15
2.85036e+15
1.65052e+15
9.07394e+14
4.71631e+14
2.30791e+14
1.05892e+14
4.53773e+13
1.80958e+13
6.69405e+12
2.29078e+12
7.23614e+11
2.10624e+11
5.64306e+10
1.39081e+10
3.15296e+09
6.57639e+08
1.26298e+08
2.23549e+07
3.65185e+06
552646
80129.4
11768.4
1800.09
287.53
48.0625
8.42073
1.54806
0.298877
0.0606277
0.012927
0.00289743
0.00068264
0.000169018
4.39654e-05
1.20092e-05
3.44245e-06
1.035e-06
3.26119e-07
1.07593e-07
3.71325e-08
1.33933e-08
5.04365e-09
1.98092e-09
8.10395e-10
3.44923e-10
1.52563e-10
7.00406e-11
3.32943e-11
1.65528e-11
7.6963e-12
8.37475e+16
7.13227e+16
5.51427e+16
4.19024e+16
3.1174e+16
2.26348e+16
1.59851e+16
1.09409e+16
7.23046e+15
4.5959e+15
2.79841e+15
1.62543e+15
8.9676e+14
4.67886e+14
2.29865e+14
1.05885e+14
4.55494e+13
1.82313e+13
6.76737e+12
2.32321e+12
7.35967e+11
2.14773e+11
5.76738e+10
1.42431e+10
3.23458e+09
6.75688e+08
1.29934e+08
2.3024e+07
3.76471e+06
570179
82726
12156.3
1860.26
297.251
49.7029
8.71041
1.60167
0.309284
0.0627486
0.0133811
0.00299957
0.000706784
0.000175016
4.55306e-05
1.24382e-05
3.56594e-06
1.0723e-06
3.37938e-07
1.11517e-07
3.84973e-08
1.38899e-08
5.23253e-09
2.05594e-09
8.4147e-10
3.58331e-10
1.58582e-10
7.28481e-11
3.46513e-11
1.72394e-11
8.02292e-12
8.34702e+16
7.09347e+16
5.46283e+16
4.13631e+16
3.06797e+16
2.2225e+16
1.56733e+16
1.07222e+16
7.08886e+15
4.51155e+15
2.75249e+15
1.60286e+15
8.86956e+14
4.64286e+14
2.28875e+14
1.05791e+14
4.5662e+13
1.8335e+13
6.82631e+12
2.34992e+12
7.46301e+11
2.18279e+11
5.87325e+10
1.453e+10
3.3048e+09
6.91272e+08
1.33082e+08
2.36048e+07
3.86283e+06
585447
84990
12494.9
1912.83
305.751
51.1381
8.96404
1.64863