/*--------------------------------*- C++ -*----------------------------------*\
| =========                 |                                                 |
| \\      /  F ield         | OpenFOAM: The Open Source CFD Toolbox           |
|  \\    /   O peration     | Version:  2406                                  |
|   \\  /    A nd           | Website:  www.openfoam.com                      |
|    \\/     M anipulation  |                                                 |
\*---------------------------------------------------------------------------*/
FoamFile
{
    version     2.0;
    format      ascii;
    arch        "LSB;label=32;scalar=64";
    class       volScalarField;
    location    "2e-07";
    object      Hem;
}
// * * * * * * * * * * * * * * * * * * * * * * * * * * * * * * * * * * * * * //

dimensions      [0 -3 0 0 0 0 0];

internalField   nonuniform List<scalar> 
5880
(
7.24824e-07
2.14936e-06
3.44215e-06
4.45674e-06
5.08262e-06
5.27323e-06
5.05423e-06
4.51139e-06
3.76542e-06
2.94353e-06
2.15523e-06
1.47663e-06
9.45125e-07
5.63877e-07
3.12734e-07
1.60718e-07
7.62593e-08
3.32856e-08
1.33193e-08
4.87302e-09
1.62743e-09
4.95875e-10
1.37954e-10
3.51051e-11
8.1916e-12
1.75825e-12
3.4829e-13
6.38919e-14
1.08887e-14
1.73392e-15
2.67175e-16
4.20453e-17
6.93023e-18
1.19806e-18
2.17343e-19
4.13885e-20
8.27432e-21
1.73664e-21
3.8261e-22
8.84727e-23
2.14657e-23
5.46254e-24
1.45733e-24
4.07405e-25
1.19271e-25
3.65409e-26
1.17084e-26
3.92043e-27
1.37059e-27
4.99833e-28
1.8998e-28
7.51886e-29
3.0955e-29
1.32418e-29
5.87928e-30
2.70651e-30
1.29053e-30
6.35617e-31
3.27443e-31
1.56553e-31
3.42251e-05
0.000101314
0.000161665
0.000208187
0.000235789
0.000242664
0.000230512
0.000203777
0.000168341
0.000130164
9.41981e-05
6.37347e-05
4.02469e-05
2.36659e-05
1.29233e-05
6.5333e-06
3.04724e-06
1.30671e-06
5.13509e-07
1.8446e-07
6.04722e-08
1.80833e-08
4.93582e-09
1.23177e-09
2.81728e-10
5.9233e-11
1.14852e-11
2.0608e-12
3.43281e-13
5.33925e-14
8.03327e-15
1.23502e-15
1.99044e-16
3.36773e-17
5.9854e-18
1.11778e-18
2.19366e-19
4.52404e-20
9.80293e-21
2.2314e-21
5.33393e-22
1.33837e-22
3.52332e-23
9.72613e-24
2.81361e-24
8.52317e-25
2.70194e-25
8.95611e-26
3.10123e-26
1.12078e-26
4.22357e-27
1.65808e-27
6.77416e-28
2.87688e-28
1.26859e-28
5.80219e-29
2.7497e-29
1.34654e-29
6.89714e-30
3.28233e-30
0.00103658
0.00306297
0.00486923
0.00623615
0.0070148
0.00716335
0.00674778
0.00591296
0.00484044
0.00370759
0.00265693
0.00177929
0.00111147
0.000646165
0.000348677
0.000174118
8.02044e-05
3.39677e-05
1.31869e-05
4.68146e-06
1.51751e-06
4.48906e-07
1.21258e-07
2.99546e-08
6.78243e-09
1.41156e-09
2.70861e-10
4.80781e-11
7.91877e-12
1.21709e-12
1.80872e-13
2.74645e-14
4.37276e-15
7.31064e-16
1.28429e-16
2.37158e-17
4.60402e-18
9.39646e-19
2.01581e-19
4.54482e-20
1.07651e-20
2.67772e-21
6.99097e-22
1.9147e-22
5.49757e-23
1.65357e-23
5.20681e-24
1.71493e-24
5.90259e-25
2.12106e-25
7.9502e-26
3.10528e-26
1.26263e-26
5.3381e-27
2.34394e-27
1.0678e-27
5.04142e-28
2.46026e-28
1.2557e-28
5.9623e-29
0.0225496
0.0664996
0.105286
0.134056
0.149722
0.151684
0.141691
0.123098
0.0998916
0.0758343
0.0538505
0.0357244
0.0220993
0.0127182
0.00679181
0.00335596
0.0015297
0.000641267
0.000246551
8.67452e-05
2.78896e-05
8.18961e-06
2.19751e-06
5.39573e-07
1.21482e-07
2.5145e-08
4.79863e-09
8.46949e-10
1.38661e-10
2.11734e-11
3.12454e-12
4.70994e-13
7.44346e-14
1.23513e-14
2.15357e-15
3.94729e-16
7.60699e-17
1.54141e-17
3.28368e-18
7.35312e-19
1.73026e-19
4.27658e-20
1.10971e-20
3.02147e-21
8.62661e-22
2.58077e-22
8.08468e-23
2.64976e-23
9.07765e-24
3.24755e-24
1.21213e-24
4.71563e-25
1.91018e-25
8.04702e-26
3.52152e-26
1.59916e-26
7.52747e-27
3.66325e-27
1.86435e-27
8.83592e-28
0.376073
1.10659
1.74415
2.20671
2.44597
2.45761
2.27615
1.96044
1.57714
1.18692
0.835434
0.549258
0.336649
0.191918
0.101506
0.0496749
0.0224295
0.00931822
0.00355282
0.00124067
0.000396295
0.000115727
3.09094e-05
7.56025e-06
1.69659e-06
3.50152e-07
6.66391e-08
1.17287e-08
1.91437e-09
2.91308e-10
4.28177e-11
6.42629e-12
1.01089e-12
1.66926e-13
2.89584e-14
5.28053e-15
1.01236e-15
2.04073e-16
4.32505e-17
9.63594e-18
2.25616e-18
5.54931e-19
1.43316e-19
3.88425e-20
1.10408e-20
3.28888e-21
1.02606e-21
3.34967e-22
1.14321e-22
4.07511e-23
1.51579e-23
5.87763e-24
2.37347e-24
9.96918e-25
4.35047e-25
1.97036e-25
9.25149e-26
4.49173e-26
2.28051e-26
1.0791e-26
5.00582
14.6922
23.0404
28.9485
31.8271
31.7018
29.1028
24.8467
19.8151
14.7835
10.3153
6.72218
4.08332
2.30671
1.20887
0.586224
0.262364
0.108092
0.0409011
0.0141881
0.00450661
0.00131007
0.000348674
8.50581e-05
1.90504e-05
3.92591e-06
7.46231e-07
1.3118e-07
2.13819e-08
3.24804e-09
4.76352e-10
7.13042e-11
1.11829e-11
1.84044e-12
3.18137e-13
5.77936e-14
1.10368e-14
2.21599e-15
4.67765e-16
1.03797e-16
2.42063e-17
5.93043e-18
1.52566e-18
4.11933e-19
1.16659e-19
3.46266e-20
1.07654e-20
3.50272e-21
1.19161e-21
4.23452e-22
1.57043e-22
6.07233e-23
2.44549e-23
1.02453e-23
4.46008e-24
2.01533e-24
9.44183e-25
4.57473e-25
2.31778e-25
1.09513e-25
54.6521
159.934
249.376
310.915
338.837
334.416
304.194
257.376
203.447
150.463
104.073
67.2286
40.4767
22.6621
11.7708
5.65794
2.51079
1.02624
0.385548
0.132915
0.0420023
0.0121611
0.00322708
0.000785632
0.000175729
3.61859e-05
6.87487e-06
1.20806e-06
1.9681e-07
2.98723e-08
4.37545e-09
6.53827e-10
1.02325e-10
1.67988e-11
2.89582e-12
5.24493e-13
9.98466e-14
1.99818e-14
4.20379e-15
9.29663e-16
2.16067e-16
5.27562e-17
1.35266e-17
3.64016e-18
1.02755e-18
3.04034e-19
9.42341e-20
3.05696e-20
1.03697e-20
3.67478e-21
1.35921e-21
5.2422e-22
2.10602e-22
8.80251e-23
3.82345e-23
1.724e-23
8.06066e-24
3.89814e-24
1.97119e-24
9.30057e-25
499.207
1455.83
2255.13
2787.61
3009.11
2941.04
2649.76
2221.2
1739.98
1275.45
874.457
559.909
334.132
185.42
95.4614
45.4912
20.0207
8.12022
3.02959
1.0382
0.326475
0.0941664
0.0249193
0.00605549
0.00135302
0.000278463
5.28935e-05
9.29362e-06
1.51381e-06
2.29671e-07
3.36114e-08
5.01604e-09
7.83689e-10
1.28393e-10
2.20805e-11
3.98886e-12
7.57244e-13
1.51103e-13
3.16936e-14
6.98755e-15
1.61899e-15
3.94078e-16
1.00729e-16
2.70249e-17
7.60579e-18
2.24381e-18
6.93468e-19
2.24335e-19
7.58925e-20
2.68244e-20
9.89676e-21
3.80775e-21
1.52619e-21
6.36486e-22
2.75877e-22
1.24142e-22
5.79313e-23
2.79648e-23
1.41151e-23
6.6505e-24
3873.47
11249.4
17294.2
21173.4
22620.1
21880.7
19517.5
16204.7
12576.8
9135.8
6207.6
3939.31
2329.93
1281.5
653.992
308.996
134.881
54.2923
20.1181
6.85369
2.14476
0.616272
0.162631
0.0394453
0.00880338
0.00181071
0.000343847
6.04069e-05
9.83769e-06
1.49193e-06
2.1816e-07
3.25173e-08
5.07222e-09
8.29362e-10
1.4231e-10
2.56449e-11
4.85551e-12
9.66187e-13
2.02073e-13
4.44206e-14
1.02615e-14
2.4903e-15
6.34651e-16
1.69771e-16
4.7641e-17
1.40147e-17
4.31931e-18
1.3935e-18
4.7018e-19
1.65763e-19
6.10072e-20
2.34167e-20
9.36437e-21
3.8968e-21
1.68549e-21
7.56944e-22
3.52557e-22
1.69881e-22
8.5592e-23
4.0269e-23
25844.1
74679.7
113801
137836
145603
139303
122967
101088
77712.1
55928
37655.3
23679.3
13879.2
7565.69
3827.17
1792.86
776.273
310.113
114.133
38.6526
12.0362
3.44488
0.906381
0.219373
0.0488902
0.0100469
0.00190678
0.000334841
5.45067e-05
8.26087e-06
1.20676e-06
1.79621e-07
2.79695e-08
4.5639e-09
7.81304e-10
1.40438e-10
2.65187e-11
5.26208e-12
1.09736e-12
2.40515e-13
5.53954e-14
1.34035e-14
3.40573e-15
9.08362e-16
2.54166e-16
7.45561e-17
2.29141e-17
7.37252e-18
2.48101e-18
8.72452e-19
3.20304e-19
1.22652e-19
4.89364e-20
2.03193e-20
8.77024e-21
3.93073e-21
1.82727e-21
8.78878e-22
4.42003e-22
2.07635e-22
149796
430167
648787
776383
810153
766116
668943
544310
414358
295374
197011
122743
71284.9
38507.5
19307.4
8967.62
3851.37
1527.01
558.17
187.902
58.215
16.5928
4.35155
1.05062
0.233723
0.0479667
0.00909445
0.00159567
0.000259527
3.92932e-05
5.73236e-06
8.518e-07
1.32373e-07
2.15507e-08
3.68007e-09
6.59714e-10
1.24221e-10
2.45771e-11
5.10999e-12
1.1166e-12
2.5639e-13
6.18475e-14
1.56674e-14
4.16623e-15
1.1623e-15
3.3996e-16
1.04188e-16
3.34298e-17
1.12197e-17
3.93522e-18
1.44112e-18
5.50504e-19
2.19133e-19
9.07845e-20
3.91007e-20
1.74886e-20
8.1139e-21
3.89537e-21
1.95543e-21
9.17105e-22
760997
2.16828e+06
3.23088e+06
3.8143e+06
3.92777e+06
3.66877e+06
3.16728e+06
2.55002e+06
1.9217e+06
1.35651e+06
896093
553006
318168
170299
84626.7
38969.6
16600.8
6532.33
2371.42
793.467
244.543
69.3963
18.1346
4.3659
0.969064
0.198524
0.0375839
0.00658547
0.00106966
0.000161714
2.3551e-05
3.49243e-06
5.41485e-07
8.79307e-08
1.49743e-08
2.67664e-09
5.0249e-10
9.91121e-11
2.05428e-11
4.47473e-12
1.02424e-12
2.46297e-13
6.21987e-14
1.6489e-14
4.58627e-15
1.33747e-15
4.08716e-16
1.30772e-16
4.37702e-17
1.53114e-17
5.59289e-18
2.13121e-18
8.46335e-19
3.49829e-19
1.50341e-19
6.71024e-20
3.107e-20
1.48879e-20
7.4595e-21
3.49263e-21
3.41606e+06
9.63621e+06
1.41554e+07
1.64603e+07
1.67092e+07
1.54062e+07
1.31446e+07
1.04679e+07
7.807e+06
5.45551e+06
3.56833e+06
2.18076e+06
1.24273e+06
658987
324527
148155
62599.9
24446.8
8813.72
2930.89
898.427
253.78
66.061
15.8531
3.50938
0.717319
0.135533
0.0237047
0.00384336
0.000579946
8.428e-05
1.24681e-05
1.92807e-06
3.12215e-07
5.30116e-08
9.44664e-09
1.76783e-09
3.4757e-10
7.18067e-11
1.55905e-11
3.55702e-12
8.52599e-13
2.14628e-13
5.67205e-14
1.57279e-14
4.57288e-15
1.39333e-15
4.44539e-16
1.48378e-16
5.17659e-17
1.88599e-17
7.16875e-18
2.83998e-18
1.17118e-18
5.02205e-19
2.23675e-19
1.03356e-19
4.94297e-20
2.47193e-20
1.15535e-20
1.36526e+07
3.80156e+07
5.49151e+07
6.27892e+07
6.27687e+07
5.70934e+07
4.81223e+07
3.78941e+07
2.79609e+07
1.93371e+07
1.25199e+07
7.57534e+06
4.27495e+06
2.24549e+06
1.09578e+06
495930
207842
80554.9
28841.9
9531.54
2905.76
816.875
211.765
50.6399
11.1762
2.27839
0.429463
0.0749453
0.0121246
0.0018254
0.000264622
3.90424e-05
6.02025e-06
9.71931e-07
1.64509e-07
2.92212e-08
5.45052e-09
1.06808e-09
2.19931e-10
4.7593e-11
1.08229e-11
2.58576e-12
6.48841e-13
1.70932e-13
4.72515e-14
1.3697e-14
4.16116e-15
1.32382e-15
4.40642e-16
1.53318e-16
5.57136e-17
2.11241e-17
8.34837e-18
3.43481e-18
1.46958e-18
6.53136e-19
3.01185e-19
1.4376e-19
7.1756e-20
3.34772e-20
4.89366e+07
1.33971e+08
1.89756e+08
2.12957e+08
2.09444e+08
1.87835e+08
1.56348e+08
1.21703e+08
8.88186e+07
6.07725e+07
3.8938e+07
2.33202e+07
1.30297e+07
6.77865e+06
3.27768e+06
1.47058e+06
611319
235158
83619.6
27463.5
8326.38
2329.39
601.306
143.259
31.5146
6.40593
1.20427
0.209627
0.0338295
0.00508038
0.000734518
0.000108061
1.66128e-05
2.67367e-06
4.51096e-07
7.98653e-08
1.48479e-08
2.89996e-09
5.95166e-10
1.28371e-10
2.90972e-11
6.92949e-12
1.73331e-12
4.55214e-13
1.25455e-13
3.62584e-14
1.09835e-14
3.48447e-15
1.15667e-15
4.01391e-16
1.45488e-16
5.50266e-17
2.16952e-17
8.90578e-18
3.80196e-18
1.68617e-18
7.7598e-19
3.69673e-19
1.84169e-19
8.57651e-20
1.58468e+08
4.24281e+08
5.87318e+08
6.45813e+08
6.24337e+08
5.51825e+08
4.53464e+08
3.48829e+08
2.51719e+08
1.70355e+08
1.07985e+08
6.40001e+07
3.53987e+07
1.8238e+07
8.73774e+06
3.88653e+06
1.60269e+06
611966
216148
70560.8
21277
5923.95
1522.74
361.434
79.2453
16.0598
3.01076
0.522704
0.0841364
0.0126024
0.00181707
0.000266553
4.08556e-05
6.55496e-06
1.10245e-06
1.94563e-07
3.60554e-08
7.01941e-09
1.436e-09
3.08748e-10
6.9763e-11
1.65627e-11
4.13033e-12
1.0815e-12
2.97188e-13
8.56473e-14
2.58726e-14
8.18575e-15
2.71013e-15
9.38084e-16
3.39179e-16
1.27979e-16
5.03421e-17
2.06194e-17
8.78381e-18
3.88762e-18
1.78557e-18
8.49034e-19
4.22207e-19
1.96256e-19
4.66869e+08
1.21413e+09
1.63678e+09
1.76049e+09
1.67177e+09
1.45575e+09
1.18073e+09
8.97375e+08
6.40116e+08
4.28367e+08
2.68571e+08
1.57488e+08
8.62187e+07
4.39902e+07
2.08829e+07
9.20969e+06
3.76804e+06
1.4285e+06
501288
162695
48806.2
13526.5
3462.89
818.996
178.991
36.1686
6.76229
1.17099
0.188014
0.0280906
0.00403955
0.000590936
9.03157e-05
1.44479e-05
2.42269e-06
4.26275e-07
7.87568e-08
1.52865e-08
3.11789e-09
6.68374e-10
1.50579e-10
3.56463e-11
8.86404e-12
2.31452e-12
6.34272e-13
1.82304e-13
5.49273e-14
1.73341e-14
5.72475e-15
1.97681e-15
7.13078e-16
2.68451e-16
1.05367e-16
4.30657e-17
1.83085e-17
8.08724e-18
3.70741e-18
1.75966e-18
8.73497e-19
4.05299e-19
1.2601e+09
3.15594e+09
4.12827e+09
4.33705e+09
4.0434e+09
3.46816e+09
2.77592e+09
2.08396e+09
1.46908e+09
9.71869e+08
6.02549e+08
3.49533e+08
1.89392e+08
9.56963e+07
4.50197e+07
1.96899e+07
7.99521e+06
3.01046e+06
1.05002e+06
338953
101197
27929.1
7123.7
1679.3
365.941
73.7494
13.7547
2.37626
0.380657
0.0567419
0.00814016
0.0011878
0.000181065
2.88881e-05
4.83098e-06
8.477e-07
1.5619e-07
3.02335e-08
6.14981e-09
1.31478e-09
2.95421e-10
6.97507e-11
1.72998e-11
4.50573e-12
1.23167e-12
3.53144e-13
1.06145e-13
3.34193e-14
1.10118e-14
3.794e-15
1.36561e-15
5.13026e-16
2.00952e-16
8.197e-17
3.47809e-17
1.53349e-17
7.01729e-18
3.32489e-18
1.64769e-18
7.63179e-19
3.13658e+09
7.48902e+09
9.47176e+09
9.70845e+09
8.88392e+09
7.5053e+09
5.92746e+09
4.39465e+09
3.06088e+09
2.00133e+09
1.22679e+09
7.0395e+08
3.77531e+08
1.88943e+08
8.81102e+07
3.82312e+07
1.54141e+07
5.76755e+06
2.00059e+06
642703
191083
52545.4
13360.1
3140.73
682.72
137.285
25.5515
4.40555
0.704367
0.10479
0.0150023
0.00218437
0.000332232
5.28837e-05
8.82303e-06
1.54452e-06
2.83904e-07
5.4824e-08
1.11253e-08
2.37288e-09
5.3192e-10
1.25298e-10
3.10057e-11
8.05713e-12
2.19755e-12
6.28696e-13
1.88561e-13
5.92414e-14
1.94797e-14
6.69785e-15
2.40602e-15
9.02121e-16
3.52689e-16
1.43599e-16
6.08211e-17
2.67691e-17
1.22288e-17
5.78465e-18
2.86206e-18
1.32337e-18
7.24232e+09
1.62988e+10
1.98673e+10
1.98543e+10
1.78327e+10
1.48393e+10
1.15631e+10
8.4649e+09
5.82395e+09
3.76289e+09
2.28036e+09
1.29438e+09
6.872e+08
3.40756e+08
1.57588e+08
6.78751e+07
2.71902e+07
1.01174e+07
3.49279e+06
1.11756e+06
331129
90792.5
23027.9
5401.96
1172.07
235.29
43.7241
7.52758
1.20174
0.178514
0.0255157
0.00370865
0.000563036
8.94525e-05
1.48952e-05
2.60235e-06
4.77392e-07
9.20035e-08
1.86326e-08
3.96609e-09
8.87284e-10
2.0859e-10
5.15141e-11
1.336e-11
3.63677e-12
1.03842e-12
3.10848e-13
9.74757e-14
3.19918e-14
1.09796e-14
3.93695e-15
1.47349e-15
5.75055e-16
2.33732e-16
9.88299e-17
4.3426e-17
1.98061e-17
9.3543e-18
4.6211e-18
2.13312e-18
1.55859e+10
3.26728e+10
3.82863e+10
3.72979e+10
3.28904e+10
2.69622e+10
2.07277e+10
1.49802e+10
1.01791e+10
6.49825e+09
3.89327e+09
2.18647e+09
1.14957e+09
5.6508e+08
2.59341e+08
1.1097e+08
4.42077e+07
1.63738e+07
5.63125e+06
1.79624e+06
530894
145273
36785.5
8617.48
1867.57
374.522
69.5309
11.9592
1.90738
0.283044
0.0404101
0.00586599
0.000889328
0.000141086
2.34574e-05
4.09187e-06
7.49447e-07
1.44201e-07
2.91558e-08
6.19579e-09
1.3838e-09
3.2477e-10
8.00716e-11
2.07313e-11
5.63377e-12
1.60591e-12
4.79912e-13
1.50236e-13
4.92249e-14
1.68658e-14
6.03747e-15
2.25592e-15
8.78973e-16
3.56683e-16
1.50577e-16
6.60598e-17
3.00826e-17
1.41863e-17
6.99771e-18
3.22473e-18
3.13695e+10
6.05685e+10
6.81225e+10
6.47177e+10
5.60576e+10
4.5278e+10
3.43392e+10
2.44966e+10
1.64374e+10
1.03682e+10
6.14245e+09
3.41444e+09
1.77891e+09
8.6756e+08
3.95516e+08
1.68311e+08
6.67556e+07
2.46398e+07
8.45171e+06
2.69058e+06
794077
217065
54923.4
12859.6
2785.76
558.457
103.643
17.8196
2.84083
0.421338
0.060114
0.00871902
0.00132063
0.000209294
3.47595e-05
6.05639e-06
1.10793e-06
2.12911e-07
4.29933e-08
9.12441e-09
2.03517e-09
4.76992e-10
1.17438e-10
3.03628e-11
8.23932e-12
2.3452e-12
6.99809e-13
2.18749e-13
7.15652e-14
2.4483e-14
8.75088e-15
3.26481e-15
1.27013e-15
5.14625e-16
2.16924e-16
9.50236e-17
4.32075e-17
2.03456e-17
1.00213e-17
4.61026e-18
5.91763e+10
1.04234e+11
1.12476e+11
1.04296e+11
8.87898e+10
7.06729e+10
5.28713e+10
3.72235e+10
2.46639e+10
1.53742e+10
9.01046e+09
4.96122e+09
2.5638e+09
1.24195e+09
5.63158e+08
2.38659e+08
9.43685e+07
3.47578e+07
1.19059e+07
3.78724e+06
1.11735e+06
305423
77293
18102
3922.63
786.595
146.018
25.109
4.00309
0.593673
0.0846814
0.0122773
0.00185858
0.000294361
4.88523e-05
8.5052e-06
1.55459e-06
2.98479e-07
6.02154e-08
1.27668e-08
2.84467e-09
6.66005e-10
1.63792e-10
4.22985e-11
1.14645e-11
3.2592e-12
9.71315e-13
3.03222e-13
9.90691e-14
3.38462e-14
1.20808e-14
4.50081e-15
1.74848e-15
7.07427e-16
2.97763e-16
1.30246e-16
5.91372e-17
2.78063e-17
1.36765e-17
6.28093e-18
1.04749e+11
1.67162e+11
1.73204e+11
1.56963e+11
1.31414e+11
1.03087e+11
7.60628e+10
5.28454e+10
3.45801e+10
2.13115e+10
1.23663e+10
6.75209e+09
3.46572e+09
1.67011e+09
7.54425e+08
3.18893e+08
1.25899e+08
4.6338e+07
1.58714e+07
5.05066e+06
1.49117e+06
407972
103348
24228.5
5255.25
1054.73
195.939
33.714
5.37748
0.797747
0.113806
0.0164989
0.00249721
0.000395389
6.55939e-05
1.14147e-05
2.0853e-06
4.00144e-07
8.06742e-08
1.70928e-08
3.80574e-09
8.90308e-10
2.1877e-10
5.64455e-11
1.52843e-11
4.34073e-12
1.29227e-12
4.02969e-13
1.31507e-13
4.48743e-14
1.59972e-14
5.95228e-15
2.30932e-15
9.33084e-16
3.92208e-16
1.71319e-16
7.76773e-17
3.64722e-17
1.79135e-17
8.21244e-18
1.74052e+11
2.50774e+11
2.50014e+11
2.21758e+11
1.82682e+11
1.41223e+11
1.02753e+11
7.04502e+10
4.55477e+10
2.77785e+10
1.59802e+10
8.66644e+09
4.42621e+09
2.12576e+09
9.58312e+08
4.0471e+08
1.59778e+08
5.88464e+07
2.0179e+07
6.43092e+06
1.90184e+06
521233
132267
31058.8
6746.93
1355.94
252.19
43.4354
6.93368
1.02925
0.146896
0.0213014
0.00322443
0.000510525
8.46864e-05
1.47346e-05
2.69116e-06
5.16247e-07
1.04045e-07
2.20354e-08
4.90393e-09
1.14661e-09
2.81584e-10
7.26052e-11
1.96461e-11
5.57515e-12
1.65837e-12
5.16668e-13
1.6845e-13
5.74219e-14
2.04483e-14
7.59987e-15
2.94507e-15
1.18851e-15
4.98942e-16
2.17659e-16
9.85569e-17
4.62133e-17
2.2667e-17
1.03735e-17
2.71454e+11
3.53241e+11
3.39891e+11
2.95512e+11
2.39593e+11
1.82489e+11
1.30919e+11
8.86137e+10
5.66603e+10
3.42492e+10
1.95711e+10
1.05648e+10
5.38045e+09
2.58052e+09
1.1631e+09
4.91554e+08
1.94337e+08
7.17108e+07
2.46449e+07
7.87303e+06
2.33404e+06
641231
163092
38378.8
8353.21
1681.63
313.232
54.0173
8.63205
1.28247
0.183157
0.026572
0.00402359
0.000637197
0.000105713
1.83943e-05
3.3596e-06
6.44447e-07
1.2987e-07
2.75007e-08
6.119e-09
1.43034e-09
3.51152e-10
9.05088e-11
2.44797e-11
6.9433e-12
2.06415e-12
6.42671e-13
2.0938e-13
7.13185e-14
2.53753e-14
9.42241e-15
3.64775e-15
1.47055e-15
6.16669e-16
2.68709e-16
1.21527e-16
5.69137e-17
2.78805e-17
1.27378e-17
3.97345e+11
4.69034e+11
4.37181e+11
3.73017e+11
2.97621e+11
2.23273e+11
1.57966e+11
1.05663e+11
6.69418e+10
4.02002e+10
2.28771e+10
1.23231e+10
6.2723e+09
3.01008e+09
1.35875e+09
5.75471e+08
2.28108e+08
8.44178e+07
2.91012e+07
9.32563e+06
2.77315e+06
764101
194875
45972.8
10028.5
2022.89
377.448
65.1871
10.43
1.55119
0.221717
0.0321867
0.0048762
0.000772528
0.000128207
2.23141e-05
4.07643e-06
7.8209e-07
1.57631e-07
3.33826e-08
7.42821e-09
1.73641e-09
4.26279e-10
1.09864e-10
2.97104e-11
8.42519e-12
2.50402e-12
7.79362e-13
2.5381e-13
8.64106e-14
3.07281e-14
1.14029e-14
4.41139e-15
1.77704e-15
7.44572e-16
3.24149e-16
1.4646e-16
6.85202e-17
3.35308e-17
1.5296e-17
5.45847e+11
5.8935e+11
5.34133e+11
4.47479e+11
3.51155e+11
2.59433e+11
1.81203e+11
1.20049e+11
7.55834e+10
4.52374e+10
2.57135e+10
1.38564e+10
7.06327e+09
3.3974e+09
1.53796e+09
6.53502e+08
2.59955e+08
9.65578e+07
3.34099e+07
1.07455e+07
3.20659e+06
886443
226765
53643.3
11730.6
2371.32
443.287
76.68
12.2855
1.82921
0.261699
0.0380191
0.00576335
0.000913556
0.000151681
2.6411e-05
4.82676e-06
9.26392e-07
1.86781e-07
3.95695e-08
8.80773e-09
2.0595e-09
5.05733e-10
1.30372e-10
3.52632e-11
1.00013e-11
2.97275e-12
9.25285e-13
3.01325e-13
1.02578e-13
3.64714e-14
1.3531e-14
5.23307e-15
2.10724e-15
8.8252e-16
3.84001e-16
1.73398e-16
8.10682e-17
3.96428e-17
1.80624e-17
7.03855e+11
7.03356e+11
6.21668e+11
5.11074e+11
3.94172e+11
2.87059e+11
1.98498e+11
1.30769e+11
8.2156e+10
4.91803e+10
2.79997e+10
1.51258e+10
7.73397e+09
3.73305e+09
1.6964e+09
7.23765e+08
2.89117e+08
1.07845e+08
3.74712e+07
1.21002e+07
3.62456e+06
1.00553e+06
258059
61223.7
13422.7
2719.5
509.368
88.2572
14.1603
2.11087
0.302291
0.0439515
0.00666719
0.00105746
0.000175672
3.06046e-05
5.59611e-06
1.07462e-06
2.16784e-07
4.5951e-08
1.02339e-08
2.39434e-09
5.8829e-10
1.51739e-10
4.10655e-11
1.16532e-11
3.46547e-12
1.07915e-12
3.51583e-13
1.19732e-13
4.25842e-14
1.5803e-14
6.11298e-15
2.46187e-15
1.0311e-15
4.48642e-16
2.02569e-16
9.46902e-17
4.62937e-17
2.10788e-17
8.53328e+11
7.99322e+11
6.89587e+11
5.55339e+11
4.21225e+11
3.03579e+11
2.09013e+11
1.37685e+11
8.66886e+10
5.20562e+10
2.97416e+10
1.61277e+10
8.27966e+09
4.0137e+09
1.83221e+09
7.85348e+08
3.15188e+08
1.18113e+08
4.12218e+07
1.33677e+07
4.02011e+06
1.11933e+06
288218
68581.8
15075.4
3061.34
574.528
99.715
16.0215
2.39118
0.342774
0.0498786
0.00757167
0.00120168
0.000199752
3.48205e-05
6.37087e-06
1.22418e-06
2.47122e-07
5.24192e-08
1.16833e-08
2.73565e-09
6.72714e-10
1.73667e-10
4.70419e-11
1.33613e-11
3.97712e-12
1.23962e-12
4.04232e-13
1.37784e-13
4.90473e-14
1.82166e-14
7.05216e-15
2.8422e-15
1.19121e-15
5.18633e-16
2.34302e-16
1.09578e-16
5.35957e-17
2.44072e-17
9.16958e+11
8.64798e+11
7.25552e+11
5.7231e+11
4.29767e+11
3.09417e+11
2.1384e+11
1.41595e+11
8.9596e+10
5.40474e+10
3.1015e+10
1.68943e+10
8.71461e+09
4.24567e+09
1.94805e+09
8.39311e+08
3.38557e+08
1.27494e+08
4.47046e+07
1.4561e+07
4.39688e+06
1.22881e+06
317479
75772.6
16700.5
3399.2
639.213
111.13
17.8813
2.67198
0.38341
0.0558377
0.00848229
0.00134707
0.000224056
3.9081e-05
7.15496e-06
1.37578e-06
2.77931e-07
5.90018e-08
1.3162e-08
3.08481e-09
7.59354e-10
1.96248e-10
5.32199e-11
1.51344e-11
4.51055e-12
1.40771e-12
4.59651e-13
1.56885e-13
5.59218e-14
2.07979e-14
8.06223e-15
3.25358e-15
1.36539e-15
5.95216e-16
2.69228e-16
1.2606e-16
6.17262e-17
2.81433e-17
9.12048e+11
8.48774e+11
7.03437e+11
5.56814e+11
4.22932e+11
3.08216e+11
2.1504e+11
1.43347e+11
9.11697e+10
5.52561e+10
3.18653e+10
1.74498e+10
9.05169e+09
4.4353e+09
2.04679e+09
8.8685e+08
3.59695e+08
1.36164e+08
4.79806e+07
1.57002e+07
4.76102e+06
1.33574e+06
346311
82911.1
18323.9
3738.53
704.468
122.689
19.7702
2.95788
0.424864
0.0619262
0.0094138
0.00149593
0.000248962
4.34504e-05
7.95969e-06
1.53151e-06
3.09609e-07
6.57781e-08
1.46864e-08
3.44535e-09
8.48989e-10
2.19662e-10
5.96422e-11
1.69827e-11
5.06839e-12
1.58409e-12
5.18016e-13
1.77078e-13
6.32197e-14
2.35498e-14
9.14382e-15
3.69608e-15
1.55361e-15
6.78366e-16
3.07329e-16
1.44127e-16
7.06816e-17
3.22839e-17
8.91125e+11
8.23476e+11
6.8488e+11
5.46887e+11
4.184e+11
3.06187e+11
2.14185e+11
1.43188e+11
9.14362e+10
5.57064e+10
3.23174e+10
1.78098e+10
9.29794e+09
4.58496e+09
2.129e+09
9.28014e+08
3.78559e+08
1.44089e+08
5.10343e+07
1.67792e+07
5.11054e+06
1.43952e+06
374554
89958.3
19937.1
4077.57
769.965
134.335
21.6793
3.24756
0.466952
0.0681173
0.0103621
0.00164761
0.000274355
4.79077e-05
8.78094e-06
1.69049e-06
3.41963e-07
7.27023e-08
1.62449e-08
3.81429e-09
9.40804e-10
2.43675e-10
6.62385e-11
1.88846e-11
5.64351e-12
1.76634e-12
5.78478e-13
1.98055e-13
7.08228e-14
2.64259e-14
1.02779e-14
4.16168e-15
1.75237e-15
7.6649e-16
3.47862e-16
1.63419e-16
8.02812e-17
3.67428e-17
8.76647e+11
8.03893e+11
6.64809e+11
5.29656e+11
4.0521e+11
2.97265e+11
2.08965e+11
1.40626e+11
9.04681e+10
5.55305e+10
3.24493e+10
1.8007e+10
9.46407e+09
4.69741e+09
2.19511e+09
9.6274e+08
3.95052e+08
1.51212e+08
5.38392e+07
1.77877e+07
5.44193e+06
1.53907e+06
401909
96838.8
21522.7
4412.67
835.003
145.944
23.5884
3.538
0.509237
0.074347
0.0113175
0.00180056
0.000299977
5.24069e-05
9.61017e-06
1.85105e-06
3.74641e-07
7.96972e-08
1.78197e-08
4.18717e-09
1.03364e-09
2.67969e-10
7.29175e-11
2.08121e-11
6.22713e-12
1.95156e-12
6.40029e-13
2.1945e-13
7.85944e-14
2.93725e-14
1.14428e-14
4.64119e-15
1.95764e-15
8.57771e-16
3.89973e-16
1.83525e-16
9.03171e-17
4.14223e-17
8.64814e+11
7.86485e+11
6.44916e+11
5.12012e+11
3.91936e+11
2.88495e+11
2.03782e+11
1.37879e+11
8.91936e+10
5.50602e+10
3.23649e+10
1.80712e+10
9.55844e+09
4.77499e+09
2.24575e+09
9.91146e+08
4.09165e+08
1.57509e+08
5.63804e+07
1.87189e+07
5.75255e+06
1.63351e+06
428118
103485
23064.7
4740.39
898.907
157.395
25.4776
3.82616
0.551277
0.080551
0.0122701
0.00195321
0.000325566
5.69023e-05
1.04389e-05
2.01153e-06
4.07306e-07
8.66886e-08
1.93937e-08
4.55986e-09
1.12643e-09
2.92257e-10
7.95969e-11
2.27408e-11
6.81152e-12
2.13719e-12
7.01785e-13
2.40946e-13
8.64146e-14
3.23428e-14
1.26194e-14
5.1265e-15
2.16587e-15
9.50586e-16
4.32899e-16
2.04073e-16
1.00601e-16
4.62334e-17
8.55501e+11
7.72012e+11
6.27268e+11
4.95424e+11
3.78547e+11
2.78825e+11
1.97438e+11
1.34101e+11
8.71794e+10
5.41289e+10
3.20205e+10
1.79987e+10
9.58506e+09
4.82075e+09
2.28229e+09
1.0137e+09
4.21014e+08
1.62995e+08
5.86542e+07
1.9569e+07
6.04053e+06
1.72216e+06
452969
109839
24548.8
5057.56
961.041
168.571
27.3274
4.10905
0.592637
0.0866649
0.0132101
0.00210398
0.000350859
6.1348e-05
1.12587e-05
2.17031e-06
4.39621e-07
9.36048e-08
2.09504e-08
4.92839e-09
1.21818e-09
3.16269e-10
8.62005e-11
2.46479e-11
7.38952e-12
2.32088e-12
7.62938e-13
2.62251e-13
9.41735e-14
3.52936e-14
1.37898e-14
5.61012e-15
2.37374e-15
1.04342e-15
4.75927e-16
2.24715e-16
1.10956e-16
5.10913e-17
8.47629e+11
7.59612e+11
6.11601e+11
4.80122e+11
3.65725e+11
2.69257e+11
1.90984e+11
1.30148e+11
8.49926e+10
5.30529e+10
3.15681e+10
1.78542e+10
9.56851e+09
4.84319e+09
2.30741e+09
1.03116e+09
4.30792e+08
1.6771e+08
6.0664e+07
2.03363e+07
6.30467e+06
1.80451e+06
476287
115849
25962.1
5361.3
1020.82
179.365
29.1193
4.38381
0.632892
0.0926256
0.0141277
0.00225133
0.000375596
6.56983e-05
1.20612e-05
2.32575e-06
4.71259e-07
1.00375e-07
2.2474e-08
5.289e-09
1.30793e-09
3.39751e-10
9.26568e-11
2.65122e-11
7.95456e-12
2.50048e-12
8.22748e-13
2.83098e-13
1.01771e-13
3.81856e-14
1.49383e-14
6.08524e-15
2.57826e-15
1.13491e-15
5.184e-16
2.45129e-16
1.21217e-16
5.59178e-17
8.40877e+11
7.48953e+11
5.97901e+11
4.66427e+11
3.53948e+11
2.60218e+11
1.84688e+11
1.26148e+11
8.26766e+10
5.18435e+10
3.10117e+10
1.76409e+10
9.51153e+09
4.84411e+09
2.32204e+09
1.04392e+09
4.38632e+08
1.71689e+08
6.24165e+07
2.10208e+07
6.54435e+06
1.88021e+06
497940
121477
27294.2
5649.11
1077.71
189.675
30.8364
4.64776
0.671644
0.0983732
0.0150138
0.00239376
0.000399527
6.99094e-05
1.28383e-05
2.47631e-06
5.01905e-07
1.06933e-07
2.39494e-08
5.63806e-09
1.39477e-09
3.62464e-10
9.88994e-11
2.83142e-11
8.50058e-12
2.67401e-12
8.80537e-13
3.03244e-13
1.09116e-13
4.09829e-14
1.60499e-14
6.54555e-15
2.77662e-15
1.22376e-15
5.59709e-16
2.65014e-16
1.31229e-16
6.06379e-17
8.35244e+11
7.3993e+11
5.86111e+11
4.54419e+11
3.43402e+11
2.51933e+11
1.78774e+11
1.22288e+11
8.03743e+10
5.05973e+10
3.04091e+10
1.73895e+10
9.42879e+09
4.82981e+09
2.32863e+09
1.05285e+09
4.448e+08
1.75003e+08
6.39278e+07
2.16251e+07
6.75954e+06
1.94904e+06
517829
126687
28535.3
5918.69
1131.23
199.408
32.462
4.89826
0.708494
0.103848
0.0158589
0.00252975
0.000422395
7.39363e-05
1.35818e-05
2.62039e-06
5.31236e-07
1.13208e-07
2.53611e-08
5.97196e-09
1.4778e-09
3.84171e-10
1.04863e-10
3.00347e-11
9.0217e-12
2.83957e-12
9.3566e-13
3.22459e-13
1.16122e-13
4.36518e-14
1.7111e-14
6.98519e-15
2.96622e-15
1.30876e-15
5.99278e-16
2.84088e-16
1.40846e-16
6.51812e-17
8.30458e+11
7.32223e+11
5.75964e+11
4.43963e+11
3.34079e+11
2.4448e+11
1.7335e+11
1.18671e+11
7.81649e+10
4.93666e+10
2.97916e+10
1.71171e+10
9.32883e+09
4.80424e+09
2.32885e+09
1.05856e+09
4.49516e+08
1.7772e+08
6.52151e+07
2.21526e+07
6.95064e+06
2.01096e+06
535895
131456
29678.5
6168.21
1180.96
208.484
33.9821
5.13303
0.743097
0.108997
0.0166547
0.00265795
0.000443973
7.77385e-05
1.42841e-05
2.75656e-06
5.58959e-07
1.1914e-07
2.66952e-08
6.28745e-09
1.55623e-09
4.04664e-10
1.10489e-10
3.16571e-11
9.51282e-12
2.99552e-12
9.87558e-13
3.40544e-13
1.22714e-13
4.61631e-14
1.81095e-14
7.39907e-15
3.14482e-15
1.38889e-15
6.3661e-16
3.02102e-16
1.49941e-16
6.94853e-17
8.2639e+11
7.25648e+11
5.67272e+11
4.34939e+11
3.25948e+11
2.37893e+11
1.68482e+11
1.1537e+11
7.61084e+10
4.81952e+10
2.91871e+10
1.68398e+10
9.22014e+09
4.77143e+09
2.32444e+09
1.06175e+09
4.53018e+08
1.79913e+08
6.62981e+07
2.26077e+07
7.1184e+06
2.066e+06
552104
135766
30717.7
6396.13
1226.57
216.832
35.3837
5.34998
0.775128
0.11377
0.0173934
0.00277707
0.00046404
8.1277e-05
1.49381e-05
2.8834e-06
5.84792e-07
1.24668e-07
2.79385e-08
6.58138e-09
1.62927e-09
4.2374e-10
1.15724e-10
3.31656e-11
9.96915e-12
3.14032e-12
1.03572e-12
3.57317e-13
1.28826e-13
4.84905e-14
1.90349e-14
7.78262e-15
3.31036e-15
1.4632e-15
6.7125e-16
3.18831e-16
1.58395e-16
7.34926e-17
8.22945e+11
7.20065e+11
5.59878e+11
4.27225e+11
3.18942e+11
2.32161e+11
1.64195e+11
1.12421e+11
7.42431e+10
4.71132e+10
2.86164e+10
1.65703e+10
9.10961e+09
4.73478e+09
2.31692e+09
1.06304e+09
4.55529e+08
1.81656e+08
6.71976e+07
2.29955e+07
7.26374e+06
2.11425e+06
566446
139607
31648.6
6601.17
1267.74
224.39
36.6557
5.54724
0.804301
0.118123
0.0180678
0.00288594
0.000482395
8.45161e-05
1.55371e-05
2.99964e-06
6.08472e-07
1.29736e-07
2.90784e-08
6.85083e-09
1.69621e-09
4.41215e-10
1.20517e-10
3.45459e-11
1.03864e-11
3.27262e-12
1.07969e-12
3.72619e-13
1.34398e-13
5.06115e-14
1.98778e-14
8.13193e-15
3.46112e-15
1.53088e-15
7.02814e-16
3.34083e-16
1.66109e-16
7.71539e-17
8.20051e+11
7.15365e+11
5.5365e+11
4.20707e+11
3.12991e+11
2.27255e+11
1.6049e+11
1.09845e+11
7.25925e+10
4.61416e+10
2.80949e+10
1.63184e+10
9.00287e+09
4.69719e+09
2.30762e+09
1.06297e+09
4.57258e+08
1.83016e+08
6.79338e+07
2.3321e+07
7.38775e+06
2.15589e+06
578925
142969
32467.8
6782.34
1304.23
231.106
37.7885
5.72323
0.830365
0.122017
0.0186718
0.00298351
0.000498859
8.74235e-05
1.60751e-05
3.10409e-06
6.29759e-07
1.34293e-07
3.01035e-08
7.09314e-09
1.7564e-09
4.56923e-10
1.24823e-10
3.57852e-11
1.07607e-11
3.39123e-12
1.11907e-12
3.86315e-13
1.39381e-13
5.25067e-14
2.06305e-14
8.44374e-15
3.59565e-15
1.59127e-15
7.30982e-16
3.47699e-16
1.72998e-16
8.04278e-17
8.1765e+11
7.11464e+11
5.48482e+11
4.1529e+11
3.08027e+11
2.2314e+11
1.5736e+11
1.07649e+11
7.11708e+10
4.52947e+10
2.76339e+10
1.60918e+10
8.90445e+09
4.66106e+09
2.29769e+09
1.06203e+09
4.58389e+08
1.84057e+08
6.85255e+07
2.35892e+07
7.49149e+06
2.19109e+06
589553
145850
33172.8
6938.77
1335.83
236.935
38.7735
5.87648
0.85309
0.125416
0.0191994
0.00306882
0.000513265
8.99691e-05
1.65465e-05
3.19564e-06
6.48426e-07
1.38291e-07
3.1003e-08
7.30577e-09
1.80921e-09
4.70703e-10
1.28598e-10
3.68713e-11