/*--------------------------------*- C++ -*----------------------------------*\
| =========                 |                                                 |
| \\      /  F ield         | OpenFOAM: The Open Source CFD Toolbox           |
|  \\    /   O peration     | Version:  2406                                  |
|   \\  /    A nd           | Website:  www.openfoam.com                      |
|    \\/     M anipulation  |                                                 |
\*---------------------------------------------------------------------------*/
FoamFile
{
    version     2.0;
    format      ascii;
    arch        "LSB;label=32;scalar=64";
    class       volScalarField;
    location    "2e-07";
    object      Heplus;
}
// * * * * * * * * * * * * * * * * * * * * * * * * * * * * * * * * * * * * * //

dimensions      [0 -3 0 0 0 0 0];

internalField   nonuniform List<scalar> 
5880
(
0.0722329
0.214197
0.343031
0.444139
0.506511
0.525504
0.503677
0.449578
0.375236
0.293329
0.21477
0.147145
0.0941795
0.056188
0.0311619
0.016014
0.00759827
0.00331635
0.00132697
0.000485459
0.000162115
4.93924e-05
1.37399e-05
3.49606e-06
8.15711e-07
1.75068e-07
3.46758e-08
6.36053e-09
1.08389e-09
1.72587e-10
2.65918e-11
4.18455e-12
6.89703e-13
1.19228e-13
2.16289e-14
4.11869e-15
8.23384e-16
1.72811e-16
3.80726e-17
8.8036e-18
2.13595e-18
5.43546e-19
1.4501e-19
4.05379e-20
1.18677e-20
3.63588e-21
1.165e-21
3.90086e-22
1.36374e-22
4.97334e-23
1.89029e-23
7.48122e-24
3.08e-24
1.31754e-24
5.8498e-25
2.69293e-25
1.28406e-25
6.32432e-26
3.25774e-26
1.55901e-26
3.40784
10.088
16.0973
20.7297
23.4782
24.1628
22.9529
20.2908
16.7624
12.961
9.37969
6.34632
4.00754
2.3565
1.28682
0.650535
0.303417
0.130107
0.051128
0.0183652
0.00602046
0.00180023
0.00049134
0.00012261
2.80411e-05
5.89522e-06
1.143e-06
2.05078e-07
3.41594e-08
5.31275e-09
7.99312e-10
1.22882e-10
1.98043e-11
3.35075e-12
5.95516e-13
1.11213e-13
2.18255e-14
4.50112e-15
9.75324e-16
2.22009e-16
5.30687e-17
1.33158e-17
3.50544e-18
9.67677e-19
2.79933e-19
8.47992e-20
2.68823e-20
8.91067e-21
3.0855e-21
1.11509e-21
4.20215e-22
1.64967e-22
6.73982e-23
2.8623e-23
1.26216e-23
5.77278e-24
2.73576e-24
1.33972e-24
6.86165e-25
3.26852e-25
103.171
304.86
484.641
620.696
698.204
712.996
671.639
588.55
481.799
369.042
264.463
177.106
110.634
64.3182
34.7068
17.3314
7.98337
3.38103
1.31255
0.465954
0.151035
0.0446769
0.0120675
0.0029809
0.000674909
0.000140455
2.69502e-05
4.78347e-06
7.87836e-07
1.21084e-07
1.79939e-08
2.73226e-09
4.35016e-10
7.27285e-11
1.27765e-11
2.35933e-12
4.58025e-13
9.34798e-14
2.00542e-14
4.5214e-15
1.07097e-15
2.66394e-16
6.95502e-17
1.90486e-17
5.46934e-18
1.64508e-18
5.18011e-19
1.70614e-19
5.87236e-20
2.1102e-20
7.90953e-21
3.0894e-21
1.25618e-21
5.31084e-22
2.33197e-22
1.06235e-22
5.0157e-23
2.44773e-23
1.2492e-23
5.93709e-24
2243.81
6617.1
10476.6
13339.6
14898.7
15094
14099.9
12249.7
9940.53
7546.58
5358.92
3555.14
2199.24
1265.68
675.903
333.977
152.232
63.8169
24.5357
8.6323
2.7753
0.814922
0.218658
0.0536865
0.0120866
0.00250165
0.000477392
8.42555e-05
1.37938e-05
2.10623e-06
3.10811e-07
4.68517e-08
7.40433e-09
1.22865e-09
2.14227e-10
3.92661e-11
7.56719e-12
1.53336e-12
3.26655e-13
7.3148e-14
1.72126e-14
4.25436e-15
1.10395e-15
3.0058e-16
8.58193e-17
2.56741e-17
8.04289e-18
2.63607e-18
9.03081e-19
3.23081e-19
1.20589e-19
4.69136e-20
1.90036e-20
8.00566e-21
3.50343e-21
1.59095e-21
7.48886e-22
3.6445e-22
1.85465e-22
8.79841e-23
37414.8
110093
173525
219548
243356
244517
226466
195057
156921
118097
83125.3
54651.4
33497
19096.2
10100.2
4942.82
2231.82
927.193
353.514
123.448
39.4306
11.5142
3.07522
0.752151
0.168783
0.0348331
0.00662901
0.00116669
0.000190423
2.8976e-05
4.25896e-06
6.39209e-07
1.00552e-07
1.6604e-08
2.8805e-09
5.25261e-10
1.00702e-10
2.02998e-11
4.30229e-12
9.58533e-13
2.24433e-13
5.52026e-14
1.42566e-14
3.86397e-15
1.09832e-15
3.27175e-16
1.02073e-16
3.33227e-17
1.13728e-17
4.05398e-18
1.50794e-18
5.84722e-19
2.36121e-19
9.91769e-20
4.32802e-20
1.9602e-20
9.20381e-21
4.46863e-21
2.2686e-21
1.0745e-21
497955
1.46152e+06
2.29199e+06
2.87976e+06
3.16617e+06
3.15376e+06
2.89525e+06
2.47187e+06
1.97133e+06
1.47077e+06
1.02625e+06
668785
406250
229497
120273
58325
26103.4
10754.4
4069.34
1411.59
448.358
130.334
34.6873
8.46158
1.89508
0.390523
0.0742279
0.0130482
0.00212676
0.000323061
4.73794e-05
7.09216e-06
1.1123e-06
1.8306e-07
3.1644e-08
5.74859e-09
1.09782e-09
2.20423e-10
4.65289e-11
1.03249e-11
2.40786e-12
5.8992e-13
1.51764e-13
4.09771e-14
1.16047e-14
3.44453e-15
1.07091e-15
3.48444e-16
1.18539e-16
4.21247e-17
1.56226e-17
6.04077e-18
2.4328e-18
1.01922e-18
4.43697e-19
2.00489e-19
9.39297e-20
4.55111e-20
2.30562e-20
1.09044e-20
5.43595e+06
1.59079e+07
2.48046e+07
3.09264e+07
3.37044e+07
3.32653e+07
3.02595e+07
2.56026e+07
2.02383e+07
1.49678e+07
1.03531e+07
6.68793e+06
4.02668e+06
2.25449e+06
1.171e+06
562877
249786
102096
38356.1
13222.9
4178.47
1209.78
321.021
78.1502
17.48
3.59936
0.683816
0.120158
0.0195751
0.0029711
0.000435181
6.50299e-05
1.01774e-05
1.67085e-06
2.88029e-07
5.21686e-08
9.93134e-09
1.98753e-09
4.18142e-10
9.24727e-11
2.14922e-11
5.24771e-12
1.34551e-12
3.62096e-13
1.02214e-13
3.02436e-14
9.37394e-15
3.04093e-15
1.03154e-15
3.65556e-16
1.35211e-16
5.21484e-17
2.09504e-17
8.75666e-18
3.80355e-18
1.71504e-18
8.01878e-19
3.87794e-19
1.96081e-19
9.26068e-20
4.96489e+07
1.44792e+08
2.24292e+08
2.77258e+08
2.99295e+08
2.9253e+08
2.63563e+08
2.20939e+08
1.73075e+08
1.2687e+08
8.6984e+07
5.5696e+07
3.32376e+07
1.84448e+07
9.49617e+06
4.52535e+06
1.99162e+06
807785
301377
103278
32476.5
9367.14
2478.78
602.338
134.581
27.6973
5.26093
0.92435
0.150562
0.0228425
0.0033429
0.000498886
7.79451e-05
1.277e-05
2.19616e-06
3.96743e-07
7.53183e-08
1.50294e-08
3.15243e-09
6.9503e-10
1.61037e-10
3.91984e-11
1.00195e-11
2.68818e-12
7.56558e-13
2.23197e-13
6.89813e-14
2.23154e-14
7.54936e-15
2.66836e-15
9.84486e-16
3.7878e-16
1.51821e-16
6.33159e-17
2.74436e-17
1.23494e-17
5.76292e-18
2.78193e-18
1.40405e-18
6.62188e-19
3.85207e+08
1.11874e+09
1.71993e+09
2.10578e+09
2.24971e+09
2.17622e+09
1.94121e+09
1.61175e+09
1.25093e+09
9.08688e+08
6.17444e+08
3.91831e+08
2.31754e+08
1.2747e+08
6.50529e+07
3.07362e+07
1.34169e+07
5.40059e+06
2.0012e+06
681750
213341
61300.4
16176.5
3923.47
875.62
180.097
34.199
6.00797
0.978426
0.14838
0.0216972
0.00323405
0.000504469
8.2487e-05
1.41541e-05
2.55066e-06
4.82938e-07
9.60997e-08
2.0099e-08
4.41829e-09
1.02067e-09
2.47703e-10
6.31272e-11
1.68868e-11
4.73882e-12
1.39405e-12
4.29646e-13
1.38614e-13
4.67699e-14
1.6489e-14
6.06861e-15
2.32936e-15
9.31519e-16
3.87636e-16
1.67666e-16
7.5298e-17
3.50712e-17
1.68995e-17
8.51382e-18
4.00952e-18
2.56993e+09
7.42628e+09
1.13169e+10
1.37075e+10
1.44803e+10
1.38541e+10
1.22296e+10
1.00538e+10
7.72906e+09
5.56255e+09
3.7452e+09
2.35518e+09
1.38046e+09
7.52514e+08
3.8067e+08
1.78329e+08
7.72134e+07
3.08461e+07
1.13525e+07
3.84467e+06
1.1972e+06
342647
90152.5
21819.4
4862.67
999.257
189.644
33.3021
5.42097
0.821574
0.120016
0.0178641
0.00278172
0.000453911
7.77068e-05
1.39679e-05
2.63755e-06
5.23372e-07
1.09145e-07
2.39223e-08
5.50985e-09
1.33318e-09
3.38754e-10
9.03518e-11
2.52812e-11
7.41597e-12
2.27925e-12
7.33343e-13
2.46787e-13
8.67839e-14
3.18612e-14
1.22005e-14
4.86785e-15
2.02123e-15
8.72411e-16
3.91008e-16
1.81767e-16
8.74273e-17
4.39652e-17
2.06736e-17
1.48946e+10
4.27736e+10
6.45145e+10
7.72052e+10
8.05658e+10
7.61883e+10
6.6526e+10
5.41322e+10
4.1209e+10
2.93761e+10
1.95938e+10
1.22076e+10
7.08984e+09
3.82992e+09
1.92032e+09
8.91931e+08
3.83065e+08
1.5188e+08
5.55172e+07
1.86893e+07
5.79021e+06
1.65035e+06
432809
104495
23245.7
4770.62
904.494
158.697
25.8108
3.90779
0.570093
0.0847139
0.013165
0.00214332
0.000366006
6.56133e-05
1.23548e-05
2.44442e-06
5.08241e-07
1.11058e-07
2.55011e-08
6.15154e-09
1.55834e-09
4.14393e-10
1.15609e-10
3.38146e-11
1.03633e-11
3.32519e-12
1.11601e-12
3.91434e-13
1.43348e-13
5.4759e-14
2.17974e-14
9.03048e-15
3.88943e-15
1.73964e-15
8.07114e-16
3.87489e-16
1.94499e-16
9.13119e-17
7.5662e+10
2.15588e+11
3.21256e+11
3.79282e+11
3.90578e+11
3.64833e+11
3.1497e+11
2.53591e+11
1.91109e+11
1.34904e+11
8.91171e+10
5.49975e+10
3.16429e+10
1.6937e+10
8.41661e+09
3.87579e+09
1.65107e+09
6.49695e+08
2.35858e+08
7.89174e+07
2.4322e+07
6.90204e+06
1.80362e+06
434219
96379
19744.1
3737.86
654.941
106.379
16.0825
2.34215
0.347326
0.0538518
0.008745
0.00148926
0.000266207
4.99759e-05
9.85744e-06
2.04315e-06
4.45054e-07
1.01871e-07
2.4497e-08
6.18641e-09
1.64005e-09
4.56168e-10
1.33031e-10
4.06531e-11
1.30074e-11
4.35368e-12
1.52299e-12
5.56314e-13
2.11989e-13
8.41843e-14
3.47974e-14
1.49545e-14
6.67473e-15
3.09057e-15
1.48093e-15
7.41953e-16
3.4774e-16
3.39613e+11
9.5805e+11
1.40743e+12
1.63668e+12
1.66149e+12
1.53197e+12
1.3071e+12
1.04095e+12
7.76356e+11
5.42524e+11
3.54858e+11
2.16871e+11
1.23589e+11
6.55365e+10
3.22747e+10
1.47344e+10
6.22578e+09
2.43134e+09
8.76567e+08
2.91492e+08
8.93533e+07
2.52397e+07
6.57007e+06
1.57665e+06
349019
71339
13478.9
2357.44
382.22
57.6747
8.38149
1.23994
0.191747
0.0310503
0.00527214
0.000939502
0.000175819
3.45678e-05
7.14165e-06
1.55059e-06
3.53776e-07
8.47989e-08
2.13469e-08
5.64148e-09
1.56433e-09
4.54831e-10
1.38586e-10
4.42157e-11
1.47584e-11
5.14892e-12
1.87592e-12
7.13052e-13
2.82485e-13
1.16495e-13
4.99535e-14
2.22487e-14
1.02808e-14
4.91679e-15
2.45864e-15
1.15029e-15
1.35718e+12
3.77933e+12
5.45978e+12
6.24297e+12
6.24118e+12
5.67703e+12
4.7851e+12
3.76811e+12
2.78041e+12
1.9229e+12
1.245e+12
7.5332e+11
4.25122e+11
2.23306e+11
1.08973e+11
4.93196e+10
2.06698e+10
8.01122e+09
2.86836e+09
9.47926e+08
2.88982e+08
8.12397e+07
2.10604e+07
5.03619e+06
1.11148e+06
226586
42709.7
7453.18
1205.76
181.53
26.3157
3.88267
0.598705
0.096658
0.0163605
0.00290609
0.000542068
0.000106224
2.18731e-05
4.73339e-06
1.07641e-06
2.57173e-07
6.45326e-08
1.70008e-08
4.69963e-09
1.36232e-09
4.13875e-10
1.3167e-10
4.38276e-11
1.52495e-11
5.54151e-12
2.1011e-12
8.30375e-13
3.41647e-13
1.46174e-13
6.49655e-14
2.99581e-14
1.42996e-14
7.13688e-15
3.33301e-15
4.86419e+12
1.33179e+13
1.88649e+13
2.11729e+13
2.08244e+13
1.86764e+13
1.5546e+13
1.21014e+13
8.83172e+12
6.04303e+12
3.87193e+12
2.31895e+12
1.29569e+12
6.74085e+11
3.25944e+11
1.46241e+11
6.07931e+10
2.33857e+10
8.31576e+09
2.73119e+09
8.28045e+08
2.31654e+08
5.9799e+07
1.42469e+07
3.13406e+06
637053
119761
20846.6
3364.19
505.215
73.0436
10.7462
1.65209
0.26589
0.0448609
0.00794258
0.00147663
0.000288406
5.91908e-05
1.27669e-05
2.89385e-06
6.89176e-07
1.72389e-07
4.52743e-08
1.24775e-08
3.60622e-09
1.09242e-09
3.46567e-10
1.15044e-10
3.99231e-11
1.44706e-11
5.47311e-12
2.15789e-12
8.85806e-13
3.78161e-13
1.67715e-13
7.71833e-14
3.67702e-14
1.83172e-14
8.5387e-15
1.57496e+13
4.21743e+13
5.83866e+13
6.42062e+13
6.20738e+13
5.48659e+13
4.50872e+13
3.46841e+13
2.50289e+13
1.6939e+13
1.07375e+13
6.36392e+12
3.51995e+12
1.81357e+12
8.68882e+11
3.86481e+11
1.59375e+11
6.08559e+10
2.14946e+10
7.0169e+09
2.11589e+09
5.8911e+08
1.5143e+08
3.5943e+07
7.88057e+06
1.59707e+06
299404
51979.7
8366.79
1253.21
180.693
26.5069
4.06286
0.651862
0.109635
0.0193488
0.00358566
0.000698078
0.000142811
3.07055e-05
6.93812e-06
1.64722e-06
4.1078e-07
1.07561e-07
2.95571e-08
8.51822e-09
2.57323e-09
8.14143e-10
2.69547e-10
9.33018e-11
3.3735e-11
1.2729e-11
5.00712e-12
2.05085e-12
8.73663e-13
3.86676e-13
1.776e-13
8.44492e-14
4.19914e-14
1.95388e-14
4.63941e+13
1.20679e+14
1.62708e+14
1.7502e+14
1.66207e+14
1.44735e+14
1.17393e+14
8.92228e+13
6.36455e+13
4.25924e+13
2.67044e+13
1.56594e+13
8.57307e+12
4.37418e+12
2.07653e+12
9.15792e+11
3.74691e+11
1.4205e+11
4.98485e+10
1.61787e+10
4.85339e+09
1.34511e+09
3.4436e+08
8.14434e+07
1.77994e+07
3.5967e+06
672457
116446
18696.3
2793.34
401.694
58.7635
8.98123
1.43676
0.240924
0.0423913
0.00783212
0.00152021
0.000310071
6.64697e-05
1.49753e-05
3.54509e-06
8.81553e-07
2.30187e-07
6.30812e-08
1.81311e-08
5.46285e-09
1.724e-09
5.6937e-10
1.9661e-10
7.0922e-11
2.67e-11
1.04799e-11
4.28335e-12
1.82099e-12
8.04371e-13
3.68746e-13
1.75022e-13
8.68737e-14
4.035e-14
1.252e+14
3.13663e+14
4.10364e+14
4.31153e+14
4.0198e+14
3.44802e+14
2.75985e+14
2.07194e+14
1.46062e+14
9.66294e+13
5.99101e+13
3.47538e+13
1.88314e+13
9.51529e+12
4.47647e+12
1.95786e+12
7.9501e+11
2.99351e+11
1.04412e+11
3.3705e+10
1.0063e+10
2.77726e+09
7.08383e+08
1.66991e+08
3.63893e+07
7.33367e+06
1.36777e+06
236294
37852.2
5642.32
809.444
118.114
18.0053
2.87269
0.480407
0.0842988
0.0155324
0.00300661
0.000611583
0.000130752
2.93794e-05
6.93672e-06
1.72049e-06
4.48104e-07
1.22493e-07
3.51214e-08
1.05566e-08
3.32372e-09
1.09519e-09
3.77339e-10
1.3582e-10
5.10246e-11
1.99864e-11
8.15266e-12
3.4593e-12
1.52521e-12
6.97943e-13
3.30699e-13
1.63869e-13
7.59781e-14
3.11582e+14
7.44269e+14
9.4149e+14
9.65102e+14
8.83178e+14
7.46146e+14
5.89296e+14
4.36915e+14
3.04317e+14
1.98978e+14
1.21973e+14
6.99911e+13
3.7537e+13
1.87864e+13
8.76084e+12
3.80139e+12
1.53267e+12
5.73491e+11
1.98929e+11
6.39078e+10
1.90007e+10
5.22497e+09
1.3285e+09
3.12309e+08
6.78885e+07
1.36513e+07
2.54079e+06
438078
70040.3
10420
1491.78
217.209
33.0369
5.25877
0.877376
0.153592
0.0282324
0.00545197
0.00110637
0.000235975
5.28983e-05
1.24608e-05
3.08351e-06
8.01286e-07
2.1855e-07
6.25253e-08
1.8753e-08
5.89178e-09
1.93735e-09
6.66136e-10
2.39293e-10
8.97218e-11
3.50774e-11
1.4282e-11
6.04915e-12
2.66241e-12
1.21626e-12
5.75342e-13
2.84637e-13
1.31746e-13
7.19283e+14
1.6197e+15
1.97474e+15
1.97363e+15
1.77275e+15
1.47521e+15
1.14954e+15
8.41552e+14
5.79008e+14
3.74107e+14
2.26717e+14
1.28692e+14
6.83248e+13
3.38801e+13
1.56686e+13
6.74877e+12
2.70354e+12
1.00599e+12
3.47297e+11
1.11123e+11
3.29256e+10
9.02796e+09
2.2898e+09
5.37149e+08
1.16546e+08
2.33964e+07
4.34776e+06
748512
119496
17750.5
2537.15
368.775
55.987
8.89506
1.48118
0.258781
0.047473
0.00914915
0.00185291
0.00039441
8.82373e-05
2.07437e-05
5.123e-06
1.32865e-06
3.61677e-07
1.03272e-07
3.09144e-08
9.6942e-09
3.18168e-09
1.09197e-09
3.91548e-10
1.46546e-10
5.71925e-11
2.32461e-11
9.8293e-12
4.31902e-12
1.96987e-12
9.30366e-13
4.59571e-13
2.12356e-13
1.54757e+15
3.24668e+15
3.8054e+15
3.70751e+15
3.26954e+15
2.6803e+15
2.06058e+15
1.48924e+15
1.01196e+15
6.46039e+14
3.87066e+14
2.17381e+14
1.14293e+14
5.61825e+13
2.57851e+13
1.10334e+13
4.39549e+12
1.62804e+12
5.59918e+11
1.78603e+11
5.27881e+10
1.4445e+10
3.65772e+09
8.56873e+08
1.85701e+08
3.72405e+07
6.91378e+06
1.18915e+06
189659
28144
4018.13
583.286
88.4316
14.0293
2.33258
0.406896
0.0745259
0.0143397
0.00289935
0.000616137
0.000137613
3.22972e-05
7.9629e-06
2.06169e-06
5.60273e-07
1.59707e-07
4.77275e-08
1.49412e-08
4.89552e-09
1.67734e-09
6.00446e-10
2.2436e-10
8.74177e-11
3.54738e-11
1.49757e-11
6.57003e-12
2.99189e-12
1.41093e-12
6.95915e-13
3.21024e-13
3.11396e+15
6.01839e+15
6.77075e+15
6.43294e+15
5.57235e+15
4.50095e+15
3.41362e+15
2.43523e+15
1.63409e+15
1.03075e+15
6.10663e+14
3.39459e+14
1.76859e+14
8.62543e+13
3.93236e+13
1.67343e+13
6.63725e+12
2.44987e+12
8.40341e+11
2.67523e+11
7.89555e+10
2.1583e+10
5.46115e+09
1.27866e+09
2.76996e+08
5.55292e+07
1.03056e+07
1.77186e+06
282472
41894.6
5977.29
866.967
131.317
20.8115
3.45641
0.602242
0.110172
0.0211722
0.00427535
0.000907362
0.000202386
4.74346e-05
1.16788e-05
3.0195e-06
8.19383e-07
2.33227e-07
6.95957e-08
2.17546e-08
7.11722e-09
2.43487e-09
8.70294e-10
3.24694e-10
1.26318e-10
5.11814e-11
2.1574e-11
9.45053e-12
4.29719e-12
2.02349e-12
9.96598e-13
4.58948e-13
5.87269e+15
1.03569e+16
1.11788e+16
1.03667e+16
8.82583e+15
7.02518e+15
5.25575e+15
3.70034e+15
2.45186e+15
1.52839e+15
8.95772e+14
4.93227e+14
2.54889e+14
1.23475e+14
5.599e+13
2.37282e+13
9.38253e+12
3.45582e+12
1.18377e+12
3.76558e+11
1.11097e+11
3.03682e+10
7.6853e+09
1.79991e+09
3.90034e+08
7.82127e+07
1.45188e+07
2.49664e+06
398035
59029.6
8420.01
1220.77
184.807
29.27
4.85773
0.845742
0.154587
0.0296809
0.00598792
0.00126957
0.000282885
6.62306e-05
1.62884e-05
4.20643e-06
1.14011e-06
3.2412e-07
9.65959e-08
3.01552e-08
9.85242e-09
3.36602e-09
1.20145e-09
4.47613e-10
1.7389e-10
7.03554e-11
2.96134e-11
1.29534e-11
5.8814e-12
2.76546e-12
1.36007e-12
6.25254e-13
1.03925e+16
1.66091e+16
1.72142e+16
1.56013e+16
1.30624e+16
1.0247e+16
7.56095e+15
5.25317e+15
3.43756e+15
2.11859e+15
1.22937e+15
6.71257e+14
3.4455e+14
1.66039e+14
7.5005e+13
3.17048e+13
1.25172e+13
4.60713e+12
1.57802e+12
5.02171e+11
1.48263e+11
4.05642e+10
1.02759e+10
2.40904e+09
5.22533e+08
1.04873e+08
1.94825e+07
3.35222e+06
534688
79320.3
11315.8
1640.52
248.307
39.3155
6.52242
1.13505
0.20736
0.0397903
0.00802232
0.00169974
0.000378454
8.85357e-05
2.17555e-05
5.61325e-06
1.51997e-06
4.31673e-07
1.28513e-07
4.00746e-08
1.30782e-08
4.46273e-09
1.59092e-09
5.91958e-10
2.29664e-10
9.27965e-11
3.90057e-11
1.70381e-11
7.72518e-12
3.62728e-12
1.78141e-12
8.17521e-13
1.72638e+16
2.49165e+16
2.48475e+16
2.2041e+16
1.81578e+16
1.40374e+16
1.02139e+16
7.00306e+15
4.52775e+15
2.76144e+15
1.58861e+15
8.6156e+14
4.40033e+14
2.11337e+14
9.52742e+13
4.02364e+13
1.58854e+13
5.8507e+12
2.00628e+12
6.39399e+11
1.89094e+11
5.18251e+10
1.31511e+10
3.08815e+09
6.70845e+08
1.34821e+08
2.50753e+07
4.3188e+06
689418
102339
14605.9
2118.03
320.615
50.7639
8.42087
1.46517
0.267604
0.0513353
0.0103463
0.00219123
0.000487658
0.000114023
2.80019e-05
7.22022e-06
1.95372e-06
5.54429e-07
1.6492e-07
5.13814e-08
1.6752e-08
5.71053e-09
2.03357e-09
7.55805e-10
2.92887e-10
1.18198e-10
4.96201e-11
2.16464e-11
9.80159e-12
4.59601e-12
2.25409e-12
1.03263e-12
2.69178e+16
3.50973e+16
3.37791e+16
2.93707e+16
2.3814e+16
1.81388e+16
1.30134e+16
8.80844e+15
5.63235e+15
3.40464e+15
1.94557e+15
1.05027e+15
5.34894e+14
2.56545e+14
1.15633e+14
4.887e+13
1.93212e+13
7.12965e+12
2.45029e+12
7.82775e+11
2.32064e+11
6.37556e+10
1.62159e+10
3.81595e+09
8.30551e+08
1.67203e+08
3.11446e+07
5.37093e+06
858282
127515
18211.2
2642.09
400.077
63.3591
10.5116
1.82907
0.334072
0.0640832
0.0129143
0.0027347
0.000608485
0.000142238
3.49199e-05
9.00061e-06
2.43439e-06
6.90483e-07
2.05272e-07
6.39117e-08
2.08224e-08
7.09248e-09
2.52354e-09
9.37048e-10
3.62766e-10
1.46246e-10
6.13276e-11
2.67231e-11
1.20859e-11
5.66013e-12
2.7725e-12
1.26797e-12
3.93912e+16
4.66021e+16
4.34466e+16
3.70727e+16
2.95808e+16
2.21921e+16
1.57015e+16
1.05031e+16
6.65431e+15
3.99618e+15
2.2742e+15
1.22506e+15
6.23551e+14
2.99248e+14
1.35083e+14
5.72126e+13
2.26786e+13
8.39295e+12
2.89333e+12
9.27193e+11
2.75721e+11
7.59717e+10
1.93758e+10
4.57097e+09
9.97121e+08
2.01134e+08
3.75293e+07
6.4815e+06
1.03704e+06
154233
22045.1
3200.35
484.853
76.8155
12.7483
2.21884
0.405351
0.0777701
0.0156748
0.0033196
0.000738674
0.000172673
4.23907e-05
1.09253e-05
2.95455e-06
8.37848e-07
2.49015e-07
7.7505e-08
2.52407e-08
8.59332e-09
3.05585e-09
1.134e-09
4.38706e-10
1.76725e-10
7.40469e-11
3.22363e-11
1.45653e-11
6.81434e-12
3.33435e-12
1.5226e-12
5.40972e+16
5.85552e+16
5.30793e+16
4.44715e+16
3.49006e+16
2.57857e+16
1.8011e+16
1.1933e+16
7.51326e+15
4.49688e+15
2.55615e+15
1.37748e+15
7.02179e+14
3.37752e+14
1.52899e+14
6.49699e+13
2.58446e+13
9.59987e+12
3.32169e+12
1.06836e+12
3.18814e+11
8.81352e+10
2.25464e+10
5.33362e+09
1.16635e+09
2.35776e+08
4.40755e+07
7.6242e+06
1.22153e+06
181876
26020.5
3780.27
573.063
90.8382
15.0824
2.62621
0.479961
0.0921192
0.0185735
0.00393483
0.000875856
0.000204802
5.02918e-05
1.29647e-05
3.50674e-06
9.94587e-07
2.95628e-07
9.20163e-08
2.99658e-08
1.02011e-08
3.62699e-09
1.34563e-09
5.2042e-10
2.09561e-10
8.77652e-11
3.81883e-11
1.72442e-11
8.06219e-12
3.9421e-12
1.79796e-12
6.97216e+16
6.98783e+16
6.17741e+16
5.07897e+16
3.9175e+16
2.85313e+16
1.973e+16
1.29985e+16
8.16658e+15
4.88882e+15
2.7834e+15
1.50367e+15
7.68852e+14
3.71118e+14
1.68649e+14
7.19549e+13
2.87438e+13
1.0722e+13
3.72546e+12
1.20304e+12
3.60369e+11
9.99749e+10
2.56578e+10
6.08728e+09
1.33459e+09
2.70395e+08
5.06456e+07
8.77528e+06
1.40794e+06
209880
30056.4
4370.12
662.932
105.147
17.4679
3.04321
0.556463
0.106859
0.021557
0.00456941
0.00101768
0.0002381
5.85016e-05
1.50896e-05
4.08375e-06
1.15885e-06
3.44628e-07
1.07318e-07
3.49639e-08
1.1907e-08
4.2349e-09
1.57158e-09
6.07924e-10
2.44828e-10
1.02541e-10
4.46168e-11
2.01451e-11
9.41685e-12
4.60346e-12
2.09821e-12
8.46326e+16
7.93958e+16
6.85172e+16
5.51864e+16
4.18631e+16
3.01731e+16
2.07752e+16
1.36859e+16
8.61713e+15
5.17469e+15
2.95655e+15
1.60325e+15
8.23096e+14
3.99017e+14
1.82149e+14
7.8077e+13
3.13355e+13
1.17428e+13
4.09832e+12
1.32905e+12
3.99695e+11
1.11289e+11
2.86563e+10
6.81885e+09
1.49891e+09
3.04382e+08
5.71242e+07
9.91448e+06
1.59298e+06
237750
34081.5
4959.44
752.865
119.487
19.8623
3.46242
0.633504
0.121731
0.0245738
0.00521261
0.00116181
0.00027204
6.68972e-05
1.72702e-05
4.67809e-06
1.32873e-06
3.9551e-07
1.23277e-07
4.01998e-08
1.37023e-08
4.87765e-09
1.81161e-09
7.01326e-10
2.82653e-10
1.18464e-10
5.15773e-11
2.3301e-11
1.08974e-11
5.32957e-12
2.42953e-12
9.1364e+16
8.59517e+16
7.20807e+16
5.6872e+16
4.27126e+16
3.07538e+16
2.12551e+16
1.40746e+16
8.90612e+15
5.3726e+15
3.08313e+15
1.67946e+15
8.66333e+14
4.22076e+14
1.93665e+14
8.34415e+13
3.36587e+13
1.26754e+13
4.44458e+12
1.44769e+12
4.37153e+11
1.22174e+11
3.15655e+10
7.53379e+09
1.66048e+09
3.37974e+08
6.35554e+07
1.10495e+07
1.7779e+06
265669
38121.8
5551.95
843.409
133.943
22.2789
3.88607
0.711471
0.136806
0.0276374
0.0058672
0.00130886
0.000306764
7.55133e-05
1.95158e-05
5.29249e-06
1.50506e-06
4.4856e-07
1.39993e-07
4.57113e-08
1.56019e-08
5.56135e-09
2.06833e-09
8.01781e-10
3.23566e-10
1.35787e-10
5.91938e-11
2.67745e-11
1.25366e-11
6.13812e-12
2.80144e-12
9.10896e+16
8.44515e+16
6.99016e+16
5.53391e+16
4.20358e+16
3.0635e+16
2.13745e+16
1.42487e+16
9.06251e+15
5.49274e+15
3.16764e+15
1.73467e+15
8.9984e+14
4.40927e+14
2.03481e+14
8.81673e+13
3.576e+13
1.35373e+13
4.77026e+12
1.56094e+12
4.73355e+11
1.32805e+11
3.4432e+10
8.24352e+09
1.82189e+09
3.71712e+08
7.00434e+07
1.21987e+07
1.96571e+06
294094
42243.5
6157.32
936.029
148.745
24.7554
4.32055
0.791493
0.152292
0.0307876
0.00654106
0.00146045
0.000342618
8.44273e-05
2.18443e-05
5.93119e-06
1.68888e-06
5.04039e-07
1.57534e-07
5.1516e-08
1.76103e-08
6.28716e-09
2.34202e-09
9.09353e-10
3.67576e-10
1.54507e-10
6.74637e-11
3.0564e-11
1.43335e-11
7.02872e-12
3.21363e-12
8.90082e+16
8.19454e+16
6.80628e+16
5.43521e+16
4.15841e+16
3.04326e+16
2.12891e+16
1.42328e+16
9.089e+15
5.5375e+15
3.21258e+15
1.77046e+15
9.24317e+14
4.55803e+14
2.11653e+14
9.22594e+13
3.76354e+13
1.43252e+13
5.07385e+12
1.66821e+12
5.08104e+11
1.43123e+11
3.724e+10
8.94417e+09
1.98228e+09
4.0542e+08
7.65555e+07
1.33566e+07
2.15552e+06
322896
46428.1
6772.88
1030.32
163.827
27.2804
4.76375
0.873156
0.168101
0.0340049
0.00722963
0.00161544
0.000379308
9.35581e-05
2.42324e-05
6.5872e-06
1.87802e-06
5.61236e-07
1.7566e-07
5.75292e-08
1.96965e-08
7.04334e-09
2.62807e-09
1.02215e-09
4.13883e-10
1.74275e-10
7.62284e-11
3.45953e-11
1.62524e-11
7.98341e-12
3.65753e-12
8.75613e+16
7.99975e+16
6.60717e+16
5.26421e+16
4.02749e+16
2.9547e+16
2.07709e+16
1.39785e+16
8.99286e+15
5.52004e+15
3.22569e+15
1.79006e+15
9.4083e+14
4.66981e+14
2.18225e+14
9.57114e+13
3.92749e+13
1.50333e+13
5.3527e+12
1.76848e+12
5.41051e+11
1.5302e+11
3.99596e+10
9.62824e+09
2.13992e+09
4.38737e+08
8.30219e+07
1.45108e+07
2.34534e+06
351773
50632.3
7392.3
1125.31
179.035
29.8281
5.21114
0.955612
0.184067
0.0372545
0.00792522
0.00177204
0.000416389
0.00010279
2.66485e-05
7.25143e-06
2.06972e-06
6.1928e-07
1.94081e-07
6.36509e-08
2.18245e-08
7.8163e-09
2.92114e-09
1.13801e-09
4.61576e-10
1.94692e-10
8.53073e-11
3.87837e-11
1.82521e-11
8.98152e-12
4.1234e-12
8.638e+16
7.82672e+16
6.40973e+16
5.089e+16
3.89561e+16
2.86753e+16
2.02556e+16
1.37052e+16
8.86609e+15
5.47325e+15
3.21729e+15
1.79643e+15
9.50208e+14
4.74692e+14
2.23258e+14
9.85351e+13
4.06779e+13
1.56593e+13
5.60532e+12
1.86106e+12
5.71931e+11
1.62409e+11
4.25654e+10
1.02891e+10
2.29323e+09
4.71321e+08
8.93756e+07
1.56493e+07
2.53317e+06
380423
54812.1
8009.15
1220.03
194.213
32.3725
5.65814
1.03802
0.200025
0.0405026
0.00862047
0.00192857
0.000453451
0.000112018
2.90639e-05
7.91571e-06
2.26153e-06
6.774e-07
2.12543e-07
6.9793e-08
2.39624e-08
8.59409e-09
3.21657e-09
1.25503e-09
5.09845e-10
2.15402e-10
9.45389e-11
4.30533e-11
2.0296e-11
1.00043e-11
4.60238e-12
8.54502e+16
7.68285e+16
6.23449e+16
4.92422e+16
3.76259e+16
2.77145e+16
1.96253e+16
1.33298e+16
8.66593e+15
5.3807e+15
3.18306e+15
1.78923e+15
9.52854e+14
4.7924e+14
2.2689e+14
1.00777e+14
4.18558e+13
1.62047e+13
5.83137e+12
1.94557e+12
6.00562e+11
1.71223e+11
4.50361e+10
1.09207e+10
2.44078e+09
5.02855e+08
9.55532e+07
1.67605e+07
2.71708e+06
408550
58924.4
8617.04
1313.49
209.205
34.8874
6.1002
1.11954
0.215813
0.0437161
0.00930822
0.00208337
0.000490101
0.000121143
3.14519e-05
8.57244e-06
2.4512e-06
7.34884e-07
2.30812e-07
7.5875e-08
2.60813e-08
9.36578e-09
3.51005e-09
1.37145e-09
5.57947e-10
2.36078e-10
1.03773e-10
4.7333e-11
2.23491e-11
1.10342e-11
5.08603e-12
8.46644e+16
7.55958e+16
6.0789e+16
4.7722e+16
3.63519e+16
2.67637e+16
1.89838e+16
1.2937e+16
8.44856e+15
5.27373e+15
3.13808e+15
1.77486e+15
9.51206e+14
4.8147e+14
2.29387e+14
1.02512e+14
4.28277e+13
1.66734e+13
6.03117e+12
2.02184e+12
6.26822e+11
1.7941e+11
4.73543e+10
1.15183e+10
2.5813e+09
5.33054e+08
1.01496e+08
1.78337e+07
2.89525e+06
435868
62926.8
9209.69
1404.73
223.856
37.3471
6.53277
1.19933
0.23127
0.0468622
0.00998148
0.00223489
0.000525961
0.000130067
3.37871e-05
9.21452e-06
2.63661e-06
7.9108e-07
2.48674e-07
8.18235e-08
2.81547e-08
1.01214e-08
3.79769e-09
1.48567e-09
6.05204e-10
2.5642e-10
1.12873e-10
5.15576e-11
2.43796e-11
1.20547e-11
5.56656e-12
8.39903e+16
7.45361e+16
5.94283e+16
4.63614e+16
3.51817e+16
2.58654e+16
1.83581e+16
1.25394e+16
8.21835e+15
5.15351e+15
3.08277e+15
1.75365e+15
9.4554e+14
4.8156e+14
2.30841e+14
1.03781e+14
4.36071e+13
1.70689e+13
6.20539e+12
2.0899e+12
6.5065e+11
1.86935e+11
4.95071e+10
1.20778e+10
2.71374e+09
5.61669e+08
1.07153e+08
1.88588e+07
3.06597e+06
462111
66779.7
9781.17
1492.83
238.018
39.7266
6.9515
1.27661
0.246242
0.0499096
0.0106336
0.0023816
0.000560674
0.000138704
3.60459e-05
9.83535e-06
2.81582e-06
8.45383e-07
2.65933e-07
8.75711e-08
3.01584e-08
1.0852e-08
4.07592e-09
1.59624e-09
6.50988e-10
2.7615e-10
1.2171e-10
5.56664e-11
2.63576e-11
1.30505e-11
6.03651e-12
8.34279e+16
7.36391e+16
5.82571e+16
4.51684e+16
3.41338e+16
2.50421e+16
1.77703e+16
1.21557e+16
7.98951e+15
5.02963e+15
3.02287e+15
1.72866e+15
9.37314e+14
4.80138e+14
2.31496e+14
1.04668e+14
4.42202e+13
1.73983e+13
6.35563e+12
2.14997e+12
6.72043e+11
1.93779e+11
5.14844e+10
1.25958e+10
2.83713e+09
5.88471e+08
1.12474e+08
1.98265e+07
3.22759e+06
487017
70443.6
10325.5
1576.86
251.539
42.0005
7.35191
1.35053
0.260569
0.0528262
0.0112576
0.00252198
0.000593879
0.000146961
3.82046e-05
1.04284e-05
2.98693e-06
8.97211e-07
2.82399e-07
9.30534e-08
3.20695e-08
1.15487e-08
4.34136e-09
1.70177e-09
6.94716e-10
2.95009e-10
1.30165e-10
5.96022e-11
2.82547e-11
1.40071e-11
6.48885e-12
8.29501e+16
7.28728e+16
5.72491e+16
4.41294e+16
3.32074e+16
2.43014e+16
1.72312e+16
1.17962e+16
7.76989e+15
4.9073e+15
2.96148e+15
1.70158e+15
9.27375e+14
4.77594e+14
2.31517e+14
1.05236e+14
4.46889e+13
1.76684e+13
6.48359e+12
2.20241e+12
6.91042e+11
1.99935e+11
5.32806e+10
1.30699e+10
2.95079e+09
6.1328e+08
1.17419e+08
2.07289e+07
3.37873e+06
510359
73884
10837.4
1655.99
264.286
44.1461
7.72998
1.42037
0.274109
0.055583
0.0118475
0.00265466
0.000625252
0.00015476
4.02426e-05
1.09879e-05
3.14828e-06
9.46054e-07
2.97908e-07
9.8215e-08
3.38682e-08
1.22044e-08
4.59114e-09
1.80109e-09
7.35883e-10
3.12773e-10
1.38135e-10
6.33155e-11
3.00466e-11
1.49116e-11
6.91739e-12
8.2544e+16
7.22191e+16
5.63857e+16
4.32328e+16
3.23993e+16
2.36468e+16
1.67474e+16
1.14681e+16
7.56549e+15
4.79086e+15
2.90139e+15
1.67401e+15
9.16569e+14
4.74332e+14
2.31078e+14
1.05553e+14
4.5037e+13
1.78864e+13
6.59126e+12
2.24765e+12
7.07719e+11
2.05406e+11
5.48921e+10
1.34985e+10
3.05411e+09
6.3594e+08
1.21953e+08
2.15588e+07
3.51808e+06
531929
77068.8
11312
1729.44
276.131
46.1414
8.08183
1.4854
0.286722
0.0581519
0.0123972
0.00277829
0.000654481
0.000162024
4.21396e-05
1.15085e-05
3.2983e-06
9.91437e-07
3.1231e-07
1.03005e-07
3.55364e-08
1.28123e-08
4.82263e-09
1.89313e-09
7.74032e-10
3.29238e-10
1.45526e-10
6.6761e-11
3.17106e-11
1.57525e-11
7.31637e-12
8.22e+16
7.16639e+16
5.56512e+16
4.24663e+16
3.17031e+16
2.30772e+16
1.63213e+16
1.1175e+16
7.38008e+15
4.6833e+15
2.84466e+15
1.64722e+15
9.05581e+14
4.70689e+14
2.3033e+14
1.05681e+14
4.52866e+13
1.80596e+13
6.68067e+12
2.2862e+12
7.22168e+11
2.10204e+11
5.63179e+10
1.38803e+10
3.14666e+09
6.56325e+08
1.26046e+08
2.23103e+07
3.64455e+06
551542
79969.3
11744.8
1796.5
286.956
47.9665
8.40391
1.54497
0.29828
0.0605065
0.0129012
0.00289164
0.000681276
0.000168681
4.38775e-05
1.19852e-05
3.43557e-06
1.03293e-06
3.25468e-07
1.07378e-07
3.70583e-08
1.33665e-08
5.03358e-09
1.97696e-09
8.08775e-10
3.44234e-10
1.52258e-10
6.99007e-11
3.32277e-11
1.65197e-11
7.68092e-12
8.19111e+16
7.11966e+16
5.50324e+16
4.18187e+16
3.11117e+16
2.25896e+16
1.59532e+16
1.0919e+16
7.21601e+15
4.58672e+15
2.79282e+15
1.62218e+15
8.94968e+14
4.66951e+14
2.29406e+14
1.05674e+14
4.54584e+13
1.81948e+13
6.75385e+12
2.31857e+12
7.34497e+11
2.14344e+11
5.75585e+10
1.42146e+10
3.22811e+09
6.74338e+08
1.29674e+08
2.2978e+07
3.75718e+06
569040
82560.7
12132
1856.55
296.657
49.6036
8.693
1.59847
0.308666
0.0626233
0.0133543
0.00299358
0.000705372
0.000174666
4.54396e-05
1.24134e-05
3.55881e-06
1.07016e-06
3.37263e-07
1.11295e-07
3.84204e-08
1.38621e-08
5.22208e-09
2.05184e-09
8.39789e-10
3.57615e-10
1.58265e-10
7.27025e-11
3.45821e-11
1.7205e-11
8.00689e-12
8.16714e+16
7.08087e+16
5.4519e+16
4.12804e+16
3.06184e+16
2.21806e+16
1.5642e+16
1.07007e+16
7.07469e+15
4.50254e+15
2.74699e+15
1.59966e+15
8.85184e+14
4.63358e+14
2.28418e+14
1.0558e+14
4.55708e+13
1.82983e+13
6.81267e+12
2.34523e+12
7.4481e+11
2.17843e+11
5.86152e+10
1.4501e+10
3.2982e+09
6.89891e+08
1.32816e+08
2.35576e+07
3.85511e+06
584277
84820.2
12469.9
1909
305.14
51.036
8.94613
1.64533
0.31777
0.0644796
0.0137519
0.00308303