/*--------------------------------*- C++ -*----------------------------------*\
| =========                 |                                                 |
| \\      /  F ield         | OpenFOAM: The Open Source CFD Toolbox           |
|  \\    /   O peration     | Version:  2406                                  |
|   \\  /    A nd           | Website:  www.openfoam.com                      |
|    \\/     M anipulation  |                                                 |
\*---------------------------------------------------------------------------*/
FoamFile
{
    version     2.0;
    format      ascii;
    arch        "LSB;label=32;scalar=64";
    class       volScalarField;
    location    "2e-07";
    object      k14;
}
// * * * * * * * * * * * * * * * * * * * * * * * * * * * * * * * * * * * * * //

dimensions      [0 3 -1 0 0 0 0];

internalField   uniform 3.5e-39;

boundaryField
{
    highVoltage
    {
        type            calculated;
        value           uniform 3.5e-39;
    }
    topBotBoundaries
    {
        type            calculated;
        value           uniform 3.5e-39;
    }
    inletBoundary
    {
        type            calculated;
        value           uniform 3.5e-39;
    }
    frontBack
    {
        type            empty;
    }
    region0_to_dielectric
    {
        type            calculated;
        value           uniform 3.5e-39;
    }
}


// ************************************************************************* //
