/*--------------------------------*- C++ -*----------------------------------*\
| =========                 |                                                 |
| \\      /  F ield         | OpenFOAM: The Open Source CFD Toolbox           |
|  \\    /   O peration     | Version:  2406                                  |
|   \\  /    A nd           | Website:  www.openfoam.com                      |
|    \\/     M anipulation  |                                                 |
\*---------------------------------------------------------------------------*/
FoamFile
{
    version     2.0;
    format      ascii;
    arch        "LSB;label=32;scalar=64";
    class       volScalarField;
    location    "2e-07";
    object      O;
}
// * * * * * * * * * * * * * * * * * * * * * * * * * * * * * * * * * * * * * //

dimensions      [0 -3 0 0 0 0 0];

internalField   nonuniform List<scalar> 
5880
(
144.972
429.894
688.465
891.391
1016.57
1054.7
1010.9
902.323
753.122
588.735
431.067
295.34
189.034
112.781
62.5498
32.1451
15.2526
6.65746
2.66399
0.974652
0.325502
0.09918
0.0275923
0.00702137
0.0016384
0.000351667
6.96614e-05
1.2779e-05
2.17784e-06
3.468e-07
5.34377e-08
8.40948e-09
1.38612e-09
2.39624e-10
4.34707e-11
8.27811e-12
1.65495e-12
3.47345e-13
7.65257e-14
1.76954e-14
4.29335e-15
1.09256e-15
2.91481e-16
8.1485e-17
2.38554e-17
7.30854e-18
2.34179e-18
7.84125e-19
2.74131e-19
9.99716e-20
3.79978e-20
1.50385e-20
6.19132e-21
2.64849e-21
1.17591e-21
5.41328e-22
2.58119e-22
1.2713e-22
6.54919e-23
3.13122e-23
6845.36
20263.9
32334.7
41639.6
47160.2
48535.2
46104.6
40757.4
33669.8
26034.1
18840.6
12747.6
8049.78
4733.42
2584.8
1306.72
609.479
261.355
102.707
36.8939
12.095
3.61684
0.987213
0.246366
0.0563484
0.0118472
0.00229715
0.00041218
6.86597e-05
1.0679e-05
1.60673e-06
2.47015e-07
3.98109e-08
6.7358e-09
1.19714e-09
2.23567e-10
4.38753e-11
9.04853e-12
1.96068e-12
4.46302e-13
1.06684e-13
2.67688e-14
7.04698e-15
1.94532e-15
5.62749e-16
1.70472e-16
5.40415e-17
1.79131e-17
6.20277e-18
2.24167e-18
8.44756e-19
3.31632e-19
1.3549e-19
5.75405e-20
2.53731e-20
1.1605e-20
5.49968e-21
2.69321e-21
1.3795e-21
6.56498e-22
207326
612625
973895
1.24729e+06
1.40303e+06
1.43274e+06
1.34962e+06
1.18265e+06
968137
741555
531412
355875
222306
129239
69738.9
34825.3
16041.7
6793.88
2637.5
936.338
303.516
89.7857
24.2528
5.99123
1.35655
0.282327
0.0541748
0.00961611
0.00158383
0.00024343
3.61762e-05
5.49317e-06
8.74596e-07
1.4622e-07
2.5687e-08
4.74339e-09
9.20849e-10
1.87939e-10
4.03183e-11
9.09009e-12
2.15313e-12
5.35571e-13
1.39826e-13
3.82959e-14
1.09957e-14
3.3073e-15
1.04141e-15
3.43003e-16
1.18058e-16
4.24233e-17
1.59012e-17
6.21086e-18
2.52538e-18
1.06767e-18
4.68812e-19
2.1357e-19
1.00833e-19
4.92076e-20
2.51152e-20
1.19252e-20
4.51013e+06
1.33006e+07
2.10582e+07
2.68126e+07
2.99459e+07
3.03382e+07
2.83396e+07
2.46207e+07
1.99793e+07
1.51676e+07
1.07706e+07
7.14524e+06
4.42007e+06
2.54377e+06
1.35843e+06
671225
305956
128260
49312.7
17349.9
5578.19
1638
439.523
107.92
24.2975
5.02924
0.959774
0.169398
0.0277337
0.00423489
0.000624939
9.42035e-05
1.48877e-05
2.47039e-06
4.30735e-07
7.89497e-08
1.52147e-08
3.08298e-09
6.56769e-10
1.4707e-10
3.4607e-11
8.55359e-12
2.21953e-12
6.04324e-13
1.72541e-13
5.16179e-14
1.61702e-14
5.29978e-15
1.81562e-15
6.49542e-16
2.42439e-16
9.43173e-17
3.82056e-17
1.60948e-17
7.04338e-18
3.19847e-18
1.50557e-18
7.32687e-19
3.72889e-19
1.76727e-19
7.5218e+07
2.21327e+08
3.4884e+08
4.41354e+08
4.89206e+08
4.91534e+08
4.55242e+08
3.921e+08
3.15438e+08
2.37393e+08
1.67094e+08
1.09856e+08
6.73329e+07
3.83854e+07
2.03023e+07
9.93546e+06
4.48613e+06
1.86374e+06
710600
248147
79263
23146.5
6182.18
1512.12
339.334
70.0339
13.3285
2.34585
0.382893
0.0582646
0.00856397
0.00128532
0.000202189
3.33868e-05
5.79197e-06
1.05616e-06
2.02482e-07
4.08167e-08
8.65052e-09
1.92728e-09
4.51254e-10
1.10992e-10
2.86645e-11
7.76888e-12
2.20827e-12
6.57809e-13
2.05223e-13
6.69967e-14
2.28653e-14
8.15062e-15
3.03172e-15
1.17558e-15
4.74718e-16
1.99393e-16
8.70137e-17
3.94091e-17
1.85039e-17
8.9839e-18
4.56125e-18
2.1583e-18
1.00116e+09
2.93816e+09
4.60724e+09
5.78831e+09
6.36369e+09
6.33865e+09
5.81915e+09
4.96834e+09
3.96243e+09
2.95641e+09
2.06294e+09
1.34441e+09
8.1667e+08
4.61353e+08
2.41784e+08
1.1725e+08
5.24752e+07
2.16195e+07
8.18062e+06
2.83776e+06
901366
262026
69738.2
17012.5
3810.28
785.221
149.254
26.2373
4.2766
0.64964
0.0952752
0.0142615
0.00223668
0.000368106
6.36306e-05
1.15593e-05
2.20747e-06
4.43219e-07
9.35577e-08
2.07605e-08
4.8415e-09
1.18614e-09
3.05148e-10
8.23907e-11
2.33329e-11
6.92566e-12
2.15319e-12
7.0058e-13
2.38333e-13
8.46946e-14
3.14102e-14
1.21453e-14
4.89123e-15
2.04917e-15
8.92061e-16
4.03086e-16
1.88846e-16
9.14991e-17
4.63579e-17
2.19036e-17
1.09249e+10
3.1937e+10
4.97527e+10
6.1992e+10
6.75403e+10
6.66621e+10
6.06561e+10
5.13447e+10
4.06084e+10
3.00487e+10
2.07939e+10
1.34373e+10
8.09245e+09
4.53162e+09
2.35399e+09
1.13158e+09
5.0217e+08
2.05257e+08
7.71131e+07
2.65843e+07
8.40087e+06
2.43234e+06
645449
157134
35147.4
7237.53
1375.04
241.623
39.3639
5.97476
0.875134
0.130772
0.0204661
0.00335992
0.000579192
0.000104904
1.99703e-05
3.99656e-06
8.40799e-07
1.85942e-07
4.32156e-08
1.05518e-08
2.70545e-09
7.28068e-10
2.05521e-10
6.08099e-11
1.88478e-11
6.11422e-12
2.07404e-12
7.34993e-13
2.71856e-13
1.04849e-13
4.21225e-14
1.76059e-14
7.64727e-15
3.44817e-15
1.61221e-15
7.79667e-16
3.94258e-16
1.86021e-16
9.93446e+10
2.86926e+11
4.40845e+11
5.41959e+11
5.83687e+11
5.70885e+11
5.15893e+11
4.34366e+11
3.41941e+11
2.51839e+11
1.73366e+11
1.11359e+11
6.66059e+10
3.7017e+10
1.9075e+10
9.09454e+09
4.00354e+09
1.62399e+09
6.05929e+08
2.07649e+08
6.52981e+07
1.88342e+07
4.98411e+06
1.21116e+06
270617
55695.3
10579.2
1858.82
302.778
45.9365
6.72262
1.00326
0.156746
0.0256799
0.00441632
0.000797812
0.000151456
3.0222e-05
6.33903e-06
1.39758e-06
3.23813e-07
7.88194e-08
2.01469e-08
5.40525e-09
1.52123e-09
4.48784e-10
1.387e-10
4.48692e-11
1.51793e-11
5.36515e-12
1.97945e-12
7.61587e-13
3.05254e-13
1.27303e-13
5.51781e-14
2.48297e-14
1.15868e-14
5.59324e-15
2.82316e-15
1.33017e-15
7.44544e+11
1.99613e+12
2.85942e+12
3.33658e+12
3.49913e+12
3.4171e+12
3.14029e+12
2.71464e+12
2.19836e+12
1.65992e+12
1.16433e+12
7.5679e+11
4.55126e+11
2.53021e+11
1.29948e+11
6.16108e+10
2.69411e+10
1.08531e+10
4.02301e+09
1.37071e+09
4.28964e+08
1.2326e+08
3.25277e+07
7.88945e+06
1.76076e+06
362160
68772.8
12082
1967.63
298.4
43.6342
6.50379
1.01449
0.165881
0.0284634
0.00512923
0.00097115
0.000193247
4.04167e-05
8.88456e-06
2.0524e-06
4.98085e-07
1.26936e-07
3.39558e-08
9.52868e-09
2.80308e-09
8.63906e-10
2.78713e-10
9.40407e-11
3.31543e-11
1.2202e-11
4.68358e-12
1.87297e-12
7.794e-13
3.37116e-13
1.51396e-13
7.05148e-14
3.3978e-14
1.71192e-14
8.05421e-15
3.82685e+12
3.77454e+12
2.06421e+09
2.14303e+08
2.23883e+08
2.18649e+08
2.01231e+08
1.11004e+09
3.45771e+12
4.92527e+12
4.69238e+12
3.61277e+12
2.38993e+12
1.3985e+12
7.36117e+11
3.52148e+11
1.54055e+11
6.18329e+10
2.28016e+10
7.7279e+09
2.40706e+09
6.88986e+08
1.81284e+08
4.38767e+07
9.77852e+06
2.00948e+06
381376
66971.5
10901.9
1652.26
241.364
35.9259
5.59418
0.912825
0.156269
0.0280891
0.005304
0.00105247
0.000219482
4.81053e-05
1.10796e-05
2.68084e-06
6.81179e-07
1.81681e-07
5.08357e-08
1.4912e-08
4.58305e-09
1.47458e-09
4.96226e-10
1.74499e-10
6.4064e-11
2.45316e-11
9.78777e-12
4.06405e-12
1.75414e-12
7.86186e-13
3.65472e-13
1.75784e-13
8.8405e-14
4.15291e-14
2.73206e+08
2.69817e+08
281974
15439.5
16005.9
15632.7
14388.2
79353.5
2.47174e+08
3.52157e+08
3.35678e+08
9.68603e+08
4.08801e+12
4.73276e+12
3.11479e+12
1.63249e+12
7.40592e+11
3.00744e+11
1.11015e+11
3.75115e+10
1.16368e+10
3.31818e+09
8.70316e+08
2.10133e+08
4.67468e+07
9.59381e+06
1.81898e+06
319151
51908
7859.03
1146.53
170.368
26.4759
4.31035
0.736051
0.131949
0.0248454
0.00491566
0.00102205
0.00022333
5.12806e-05
1.23701e-05
3.13363e-06
8.33287e-07
2.32472e-07
6.79954e-08
2.08387e-08
6.68629e-09
2.24406e-09
7.87083e-10
2.88238e-10
1.10106e-10
4.38288e-11
1.81578e-11
7.82052e-12
3.49789e-12
1.62286e-12
7.79112e-13
3.91105e-13
1.8343e-13
21795.3
21552.4
33.2555
1.24768
1.27869
1.24895
1.14958
6.33892
19744.2
28136.3
26822.3
77398.5
3.26664e+08
7.39346e+08
2.59549e+12
4.75337e+12
2.76825e+12
1.22105e+12
4.63041e+11
1.5744e+11
4.87913e+10
1.38703e+10
3.62644e+09
8.73186e+08
1.93821e+08
3.97067e+07
7.51716e+06
1.31716e+06
213943
32344.4
4710.44
698.52
108.302
17.587
2.995
0.535355
0.100503
0.0198234
0.00410876
0.000894991
0.000204859
4.92618e-05
1.24404e-05
3.29797e-06
9.173e-07
2.67507e-07
8.17473e-08
2.61557e-08
8.75447e-09
3.06244e-09
1.11863e-09
4.26263e-10
1.69275e-10
6.99692e-11
3.00697e-11
1.34211e-11
6.21432e-12
2.97773e-12
1.49197e-12
6.9856e-13
1.94267
1.92348
0.00392529
0.000113064
0.000114135
0.000111486
0.000102621
0.000565754
1.76214
2.51166
2.39461
6.90922
29159.5
66013.3
2.31765e+08
9.45702e+08
4.67727e+12
3.69251e+12
1.60723e+12
5.68999e+11
1.78077e+11
5.06296e+10
1.32041e+10
3.17027e+09
7.01886e+08
1.4347e+08
2.71078e+07
4.74117e+06
768710
115995
16856.8
2493.75
385.633
62.4462
10.6028
1.88942
0.353583
0.0695175
0.0143621
0.00311825
0.00071144
0.000170528
4.29277e-05
1.13447e-05
3.14574e-06
9.14622e-07
2.7868e-07
8.89123e-08
2.96772e-08
1.03537e-08
3.77216e-09
1.43382e-09
5.68023e-10
2.34247e-10
1.00446e-10
4.47373e-11
2.06723e-11
9.88643e-12
4.9441e-12
2.31082e-12
0.0001935
0.000191833
4.86911e-07
1.14894e-08
1.13846e-08
1.11209e-08
1.02372e-08
5.64267e-08
0.000175746
0.000250552
0.0002389
0.000689237
2.90873
6.58626
23124.9
129108
7.7848e+08
3.12657e+12
4.1026e+12
1.72444e+12
5.64268e+11
1.62047e+11
4.22653e+10
1.01233e+10
2.23511e+09
4.55691e+08
8.58965e+07
1.49898e+07
2.42503e+06
365098
52927.1
7808.87
1204.11
194.396
32.9034
5.84452
1.09016
0.213627
0.0439884
0.00951908
0.00216468
0.000517178
0.000129775
3.41882e-05
9.45077e-06
2.73954e-06
8.32274e-07
2.64777e-07
8.81328e-08
3.06651e-08
1.11433e-08
4.22503e-09
1.66976e-09
6.86997e-10
2.93931e-10
1.30634e-10
6.024e-11
2.87535e-11
1.43519e-11
6.69577e-12
2.15345e-08
2.13763e-08
6.48868e-11
1.30879e-12
1.26881e-12
1.23946e-12
1.14103e-12
6.28802e-12
1.95842e-08
2.79262e-08
2.66301e-08
7.68213e-08
0.000324191
0.00073419
2.57788
17.1038
111111
5.92476e+08
2.7331e+12
3.98244e+12
1.52651e+12
4.55033e+11
1.19543e+11
2.86122e+10
6.30123e+09
1.28117e+09
2.40863e+08
4.19274e+07
6.76623e+06
1.01613e+06
146911
21613.3
3322.73
534.761
90.2237
15.9739
2.96973
0.580022
0.119039
0.0256755
0.00581973
0.00138597
0.00034668
9.10473e-05
2.50922e-05
7.25205e-06
2.19682e-06
6.96928e-07
2.31345e-07
8.02822e-08
2.9099e-08
1.10059e-08
4.33926e-09
1.78124e-09
7.60429e-10
3.3725e-10
1.55204e-10
7.39383e-11
3.68357e-11
1.71539e-11
2.67736e-12
2.66108e-12
9.4002e-15
1.67065e-16
1.57977e-16
1.54327e-16
1.4208e-16
7.82815e-16
2.43805e-12
3.47729e-12
3.31624e-12
9.56557e-12
4.0366e-08
9.1431e-08
0.00032104
0.00245883
16.7878
103370
6.71804e+08
4.14895e+12
3.34899e+12
1.11457e+12
2.99919e+11
7.20287e+10
1.58373e+10
3.2116e+09
6.02164e+08
1.04545e+08
1.68281e+07
2.5206e+06
363432
53313.2
8171.52
1311.06
220.501
38.9144
7.21143
1.40395
0.287215
0.0617527
0.0139533
0.0033127
0.000826107
0.000216311
5.94405e-05
1.71303e-05
5.17477e-06
1.63723e-06
5.42052e-07
1.87626e-07
6.78392e-08
2.55971e-08
1.00689e-08
4.12408e-09
1.75685e-09
7.77563e-10
3.57132e-10
1.69815e-10
8.44456e-11
3.92532e-11
3.72047e-16
3.70256e-16
1.49186e-18
2.39025e-20
2.19846e-20
2.14768e-20
1.97735e-20
1.08924e-19
3.39233e-16
4.83936e-16
4.6157e-16
1.33124e-15
5.61757e-12
1.27258e-11
4.46843e-08
3.70522e-07
0.00259049
16.9334
122026
9.34473e+08
4.99306e+12
2.33903e+12
6.68597e+11
1.62464e+11
3.57358e+10
7.23146e+09
1.35243e+09
2.34208e+08
3.76046e+07
5.6184e+06
807951
118193
18064
2889.73
484.562
85.2591
15.7521
3.05746
0.623609
0.133681
0.0301174
0.0071296
0.0017729
0.000462927
0.000126861
3.64626e-05
1.0986e-05
3.46699e-06
1.14501e-06
3.95381e-07
1.42623e-07
5.36928e-08
2.10745e-08
8.61358e-09
3.66189e-09
1.61753e-09
7.41519e-10
3.5195e-10
1.74708e-10
8.10638e-11
5.77606e-20
5.75559e-20
2.60486e-22
3.83052e-24
3.41814e-24
3.3392e-24
3.07454e-24
1.69327e-23
5.27348e-20
7.52453e-20
7.1775e-20
2.06988e-19
8.73423e-16
1.97883e-15
6.94816e-12
5.90751e-11
4.15917e-07
0.00276452
20.4471
163733
1.034e+09
4.02409e+12
1.32319e+12
3.3023e+11
7.29236e+10
1.47397e+10
2.7507e+09
4.75264e+08
7.61348e+07
1.13489e+07
1.62811e+06
237572
36214.8
5777.9
966.243
169.548
31.2395
6.047
1.23002
0.262968
0.0590871
0.0139508
0.00346014
0.00090119
0.000246346
7.06322e-05
2.12301e-05
6.68419e-06
2.20247e-06
7.58838e-07
2.73136e-07
1.0261e-07
4.01924e-08
1.63948e-08
6.95653e-09
3.06713e-09
1.40353e-09
6.65011e-10
3.29555e-10
1.52643e-10
1.00193e-23
9.99652e-24
5.02037e-26
6.87463e-28
5.93801e-28
5.80079e-28
5.34131e-28
2.94105e-27
9.15942e-24
1.3072e-23
1.24704e-23
3.59597e-23
1.51736e-19
3.75115e-19
1.4322e-15
1.81771e-12
1.62893e-08
0.000163062
1.8248
22824.7
3.19003e+08
4.983e+12
2.31473e+12
6.08423e+11
1.35617e+11
2.74205e+10
5.10924e+09
8.81115e+08
1.40879e+08
2.09591e+07
3.00061e+06
436896
66449.7
10577.3
1764.69
308.92
56.7835
10.9654
2.22517
0.474599
0.106389
0.0250609
0.00620145
0.00161151
0.000439533
0.000125745
3.77141e-05
1.18489e-05
3.89613e-06
1.33964e-06
4.81228e-07
1.80433e-07
7.05413e-08
2.87212e-08
1.21648e-08
5.35408e-09
2.44588e-09
1.15699e-09
5.72441e-10
2.64688e-10
1.94148e-27
1.93953e-27
1.07027e-29
1.3811e-31
1.15236e-31
1.12569e-31
1.03659e-31
5.70646e-31
1.77717e-27
2.53685e-27
2.4204e-27
7.26086e-27
3.10713e-23
1.05278e-20
7.54227e-17
6.03818e-13
5.41821e-09
5.43251e-05
0.608615
7618.69
1.06564e+08
1.66547e+12
3.54395e+12
1.02201e+12
2.31674e+11
4.69494e+10
8.74143e+09
1.50548e+09
2.40357e+08
3.57046e+07
5.10339e+06
741767
112613
17891.4
2979.18
520.495
95.4831
18.4016
3.7267
0.793258
0.177466
0.0417201
0.0103033
0.00267214
0.000727389
0.000207694
6.21728e-05
1.94961e-05
6.39867e-06
2.19603e-06
7.87429e-07
2.94712e-07
1.15017e-07
4.67488e-08
1.9767e-08
8.68563e-09
3.96142e-09
1.87095e-09
9.24266e-10
4.26645e-10
4.2039e-31
4.20502e-31
2.5289e-33
3.10606e-35
2.49899e-35
2.44105e-35
2.24794e-35
1.23723e-34
3.85311e-31
5.50137e-31
5.24945e-31
1.61977e-30
6.99811e-27
3.95706e-24
2.83862e-20
2.27541e-16
2.04167e-12
2.04694e-08
0.00022931
2.87036
40146.1
6.27398e+08
4.64861e+12
1.57488e+12
3.66548e+11
7.46273e+10
1.38972e+10
2.39167e+09
3.81488e+08
5.66114e+07
8.08243e+06
1.17326e+06
177874
28218.6
4691.71
818.415
149.897
28.8416
5.83144
1.23922
0.276774
0.0649573
0.0160151
0.00414646
0.00112681
0.000321198
9.59871e-05
3.00487e-05
9.84547e-06
3.37332e-06
1.20755e-06
4.51206e-07
1.75803e-07
7.13401e-08
3.01169e-08
1.32126e-08
6.01681e-09
2.83739e-09
1.39961e-09
6.44979e-10
1.01715e-34
1.01872e-34
6.63146e-37
7.81801e-39
6.05574e-39
5.91493e-39
5.4473e-39
2.99743e-38
9.33492e-35
1.33312e-34
1.36551e-34
4.84752e-32
2.78484e-28
1.78125e-24
1.28015e-20
1.02797e-16
9.22346e-13
9.24705e-09
0.000103588
1.29662
18134.6
2.83399e+08
4.94778e+12
2.2409e+12
5.41638e+11
1.11072e+11
2.07081e+10
3.56347e+09
5.68178e+08
8.42715e+07
1.20234e+07
1.74389e+06
264139
41860.8
6952.24
1211.34
221.596
42.5843
8.59908
1.82497
0.407054
0.0954031
0.0234888
0.00607287
0.00164795
0.000469064
0.000139969
4.37519e-05
1.43137e-05
4.89684e-06
1.75026e-06
6.52994e-07
2.54038e-07
1.0293e-07
4.3387e-08
1.90057e-08
8.64193e-09
4.06932e-09
2.00437e-09
9.22097e-10
2.7507e-38
2.75843e-38
1.93227e-40
2.20237e-42
1.64021e-42
1.60193e-42
1.47537e-42
8.11658e-42
2.52777e-38
3.75352e-38
6.62703e-36
3.39726e-32
1.9561e-28
1.25846e-24
9.04647e-21
7.26609e-17
6.52109e-13
6.53933e-09
7.32731e-05
0.917384
12833.7
2.00606e+08
3.50426e+12
2.96443e+12
7.53753e+11
1.56088e+11
2.91623e+10
5.02079e+09
8.00626e+08
1.1874e+08
1.69371e+07
2.45557e+06
371735
58875.1
9770.95
1701.12
310.933
59.6988
12.0437
2.5535
0.568963
0.133208
0.03276
0.00846013
0.00229302
0.000651872
0.000194273
6.06474e-05
1.98148e-05
6.76958e-06
2.41628e-06
9.00207e-07
3.49714e-07
1.41492e-07
5.95556e-08
2.60505e-08
1.1828e-08
5.56153e-09
2.73543e-09
1.25625e-09
8.30905e-42
8.34298e-42
6.25729e-44
6.9379e-46
4.96243e-46
4.84607e-46
4.46343e-46
2.45494e-45
7.64559e-42
1.14322e-41
2.35881e-39
1.21017e-35
6.96809e-32
4.48295e-28
3.22262e-24
2.58842e-20
2.32305e-16
2.32956e-12
2.6103e-08
0.000326814
4.57198
71466.4
1.24841e+09
3.67055e+12
9.95798e+11
2.08729e+11
3.91129e+10
6.74085e+09
1.07549e+09
1.59556e+08
2.27622e+07
3.29994e+06
499467
79081.6
13119.4
2283.05
417.081
80.0328
16.1356
3.41872
0.761187
0.17807
0.0437561
0.0112897
0.00305701
0.000868189
0.000258466
8.05978e-05
2.63026e-05
8.9753e-06
3.1996e-06
1.19051e-06
4.61886e-07
1.86626e-07
7.84454e-08
3.42656e-08
1.55362e-08
7.29481e-09
3.58288e-09
1.64257e-09
2.80442e-45
2.81945e-45
2.25413e-47
2.44432e-49
1.67758e-49
1.63802e-49
1.50879e-49
8.35529e-49
2.60561e-45
9.36371e-44
4.14714e-40
2.13652e-36
1.22987e-32
7.91033e-29
5.68493e-25
4.56495e-21
4.09585e-17
4.10626e-13
4.59988e-09
5.75761e-05
0.805251
12583.9
2.19763e+08
4.28094e+12
1.2583e+12
2.67519e+11
5.03131e+10
8.68374e+09
1.38671e+09
2.05859e+08
2.93806e+07
4.26048e+06
644917
102110
16938.1
2947.07
538.258
103.255
20.81
4.40729
0.980834
0.229333
0.0563196
0.0145218
0.00392941
0.00111509
0.000331691
0.000103339
3.36916e-05
1.14849e-05
4.08986e-06
1.52005e-06
5.89043e-07
2.37713e-07
9.97933e-08
4.3534e-08
1.97124e-08
9.24312e-09
4.53363e-09
2.0748e-09
1.05773e-48
1.06475e-48
9.0392e-51
9.63072e-53
6.33755e-53
6.1872e-53
5.89589e-53
6.81452e-51
2.49884e-47
9.90966e-44
4.56926e-40
2.35414e-36
1.35522e-32
8.71704e-29
6.26504e-25
5.03106e-21
4.51432e-17
4.52604e-13
5.07041e-09
6.34693e-05
0.887723
13873.4
2.42297e+08
4.72789e+12
1.531e+12
3.30679e+11
6.2453e+10
1.07981e+10
1.72635e+09
2.56504e+08
3.66331e+07
5.31467e+06
804757
127446
21143.7
3679.04
671.954
128.896
25.9753
5.50041
1.22386
0.286083
0.0702339
0.0181027
0.00489619
0.00138873
0.00041285
0.000128541
4.18781e-05
1.42644e-05
5.07531e-06
1.88458e-06
7.29586e-07
2.94125e-07
1.2334e-07
5.37444e-08
2.43067e-08
1.13833e-08
5.57637e-09
2.54769e-09
4.45641e-52
4.49167e-52
4.03525e-54
4.24126e-56
2.67457e-56
2.68031e-56
2.08712e-54
6.82043e-51
2.51931e-47
1.03972e-43
4.79443e-40
2.47031e-36
1.42218e-32
9.14837e-29
6.57546e-25
5.28067e-21
4.7386e-17
4.75121e-13
5.323e-09
6.66353e-05
0.932065
14567.4
2.54433e+08
4.96501e+12
1.80442e+12
3.96404e+11
7.52081e+10
1.30295e+10
2.08588e+09
3.10248e+08
4.43454e+07
6.43765e+06
975289
154513
25642.6
4463.05
815.326
156.426
31.5277
6.67685
1.48571
0.347299
0.0852601
0.0219738
0.00594237
0.00168512
0.000500829
0.00015588
5.07646e-05
1.7283e-05
6.14593e-06
2.28069e-06
8.82321e-07
3.55426e-07
1.48922e-07
6.4833e-08
2.92934e-08
1.37047e-08
6.70649e-09
3.05934e-09
2.09776e-55
2.11703e-55
2.00651e-57
2.08779e-59
1.28743e-59
7.0941e-58
2.06273e-54
6.81961e-51
2.5192e-47
1.03977e-43
4.795e-40
2.47078e-36
1.42256e-32
9.15144e-29
6.57815e-25
5.28322e-21
4.74123e-17
4.75419e-13
5.32673e-09
6.66868e-05
0.932853
14580.7
2.54685e+08
4.97029e+12
2.07069e+12
4.63027e+11
8.82684e+10
1.5325e+10
2.45691e+09
3.65854e+08
5.23422e+07
7.6042e+06
1.15273e+06
182720
30337.8
5282.46
965.4
185.288
37.3581
7.9143
1.76163
0.411921
0.101152
0.0260756
0.00705299
0.00200037
0.000594579
0.000185066
6.02679e-05
2.05166e-05
7.29464e-06
2.70634e-06
1.04667e-06
4.21468e-07
1.76513e-07
7.68039e-08
3.46813e-08
1.62145e-08
7.92895e-09
3.61265e-09
1.10291e-58
1.11446e-58
1.11131e-60
1.1588e-62
2.57485e-61
6.644e-58
1.96609e-54
6.50071e-51
2.4016e-47
9.91311e-44
4.57192e-40
2.35603e-36
1.35661e-32
8.72791e-29
6.27423e-25
5.03955e-21
4.52294e-17
4.53569e-13
5.08234e-09
6.36326e-05
0.890204
13915.3
2.43082e+08
4.74425e+12
2.32392e+12
5.29118e+11
1.01359e+11
1.76367e+10
2.8318e+09
4.22186e+08
6.0461e+07
8.79073e+06
1.3335e+06
211503
35136.2
6121.23
1119.28
214.935
43.359
9.19065
2.04688
0.478892
0.117664
0.0303494
0.0082135
0.00233075
0.000693129
0.000215842
7.03201e-05
2.39476e-05
8.51727e-06
3.16076e-06
1.22266e-06
4.92398e-07
2.0623e-07
8.97329e-08
4.05157e-08
1.8939e-08
9.25921e-09
4.21596e-09
6.48137e-62
6.55748e-62
6.86307e-64
1.02885e-64
2.27185e-61
6.0178e-58
1.78099e-54
5.88926e-51
2.17592e-47
8.9825e-44
4.14314e-40
2.13528e-36
1.22962e-32
7.91175e-29
5.68809e-25
4.56922e-21
4.10123e-17
4.11321e-13
4.60941e-09
5.77171e-05
0.807529
12624.2
2.20551e+08
4.30494e+12
2.56017e+12
5.93531e+11
1.1425e+11
1.99241e+10
3.20394e+09
4.78248e+08
6.8558e+07
9.97621e+06
1.51441e+06
240349
39952.4
6964.44
1274.24
244.848
49.4269
10.4844
2.33678
0.547156
0.13455
0.0347351
0.00940885
0.00267239
0.000795463
0.000247937
8.08503e-05
2.75582e-05
9.80994e-06
3.6435e-06
1.4105e-06
5.68469e-07
2.38254e-07
1.03732e-07
4.68627e-08
2.19166e-08
1.07197e-08
4.88169e-09
3.98745e-65
4.03938e-65
4.81058e-67
8.1486e-65
1.9319e-61
5.11783e-58
1.51476e-54
5.0093e-51
1.85095e-47
7.64157e-44
3.52492e-40
1.81681e-36
1.04631e-32
6.73279e-29
4.84087e-25
3.88896e-21
3.49092e-17
3.50139e-13
3.92409e-09
4.91398e-05
0.687576
10749.8
1.87819e+08
3.66635e+12
2.78181e+12
6.56737e+11
1.27031e+11
2.22024e+10
3.57579e+09
5.34408e+08
7.66855e+07
1.11681e+07
1.69654e+06
269427
44813.4
7816.59
1431.06
275.17
55.5889
11.8009
2.63254
0.616993
0.151878
0.0392515
0.0106445
0.00302702
0.000902155
0.000281556
9.19348e-05
3.13785e-05
1.11849e-05
4.15979e-06
1.61253e-06
6.50748e-07
2.73091e-07
1.19049e-07
5.38482e-08
2.52132e-08
1.23459e-08
5.62894e-09
2.469e-68
2.50587e-68
2.98466e-68
6.27344e-65
1.48755e-61
3.94102e-58
1.16655e-54
3.85813e-51
1.42572e-47
5.88653e-44
2.71559e-40
1.39979e-36
8.06216e-33
5.18829e-29
3.73071e-25
2.99736e-21
2.69082e-17
2.69912e-13
3.02524e-09
3.78871e-05
0.530173
8289.65
1.44848e+08
2.82777e+12
2.99267e+12
7.19757e+11
1.39907e+11
2.45089e+10
3.95346e+09
5.91587e+08
8.49767e+07
1.23859e+07
1.88285e+06
299201
49794.8
8690.52
1592.02
306.317
61.9248
13.1563
2.93742
0.689105
0.169806
0.0439345
0.011929
0.00339672
0.00101373
0.000316833
0.000103608
3.54174e-05
1.26446e-05
4.7102e-06
1.82886e-06
7.39253e-07
3.10738e-07
1.3568e-07
6.14689e-08
2.88268e-08
1.4137e-08
6.45709e-09
1.52878e-71
2.5385e-71
1.87425e-68
3.97838e-65
9.4352e-62
2.50017e-58
7.40195e-55
2.44849e-51
9.04973e-48
3.73717e-44
1.72436e-40
8.89011e-37
5.12126e-33
3.29632e-29
2.3707e-25
1.90505e-21
1.71053e-17
1.71613e-13
1.92384e-09
2.4098e-05
0.337278
5274.57
9.21816e+07
1.79993e+12
3.19174e+12
7.82262e+11
1.52813e+11
2.68322e+10
4.33514e+09
6.49524e+08
9.33947e+07
1.36241e+07
2.07252e+06
329539
54873.8
9582.01
1756.28
338.116
68.3959
14.5412
3.24915
0.762896
0.18817
0.0487374
0.0132484
0.0037771
0.00112876
0.000353285
0.000115701
3.96129e-05
1.41653e-05
5.28543e-06
2.05569e-06
8.32377e-07
3.50491e-07
1.53306e-07
6.95758e-08
3.26854e-08
1.6057e-08
7.34893e-09
1.14025e-74
3.31121e-72
6.27398e-69
1.33204e-65
3.15975e-62
8.37454e-59
2.47986e-55
8.20485e-52
3.03317e-48
1.25284e-44
5.78189e-41
2.98153e-37
1.7179e-33
1.10597e-29
7.95573e-26
6.39439e-22
5.74268e-18
5.76268e-14
6.46149e-10
8.09535e-06
0.113327
1772.65
3.09863e+07
6.05164e+11
3.37725e+12
8.43588e+11
1.65613e+11
2.91476e+10
4.71681e+09
7.0761e+08
1.01852e+08
1.48701e+07
2.2636e+06
360130
59998.4
10481.9
1922.13
370.229
74.932
15.9402
3.56412
0.837476
0.206738
0.0535965
0.0145842
0.00416263
0.00124549
0.000390331
0.000128012
4.38922e-05
1.57197e-05
5.8748e-06
2.28868e-06
9.28284e-07
3.91548e-07
1.71563e-07
7.79985e-08
3.67068e-08
1.80643e-08
8.28486e-09
7.58875e-78
2.95283e-75
5.5988e-72
1.18846e-68
2.81859e-65
7.46888e-62
2.21124e-58
7.31465e-55
2.70355e-51
1.11647e-47
5.15153e-44
2.65595e-40
1.53001e-36
9.84808e-33
7.08279e-29
5.69164e-25
5.11055e-21
5.12734e-17
5.74797e-13
7.2e-09
0.000100773
1.57597
27543
5.3781e+08
3.54804e+12
9.0313e+11
1.78172e+11
3.14309e+10
5.09447e+09
7.6524e+08
1.1026e+08
1.6111e+07
2.45414e+06
390661
65116.4
11381
2087.88
402.327
81.4652
17.3386
3.87893
0.912016
0.225298
0.0584543
0.0159202
0.00454839
0.00136237
0.000427459
0.000140364
4.81916e-05
1.72838e-05
6.46889e-06
2.524e-06
1.02535e-06
4.33195e-07
1.90127e-07
8.65842e-08
4.08167e-08
2.01213e-08
9.24713e-09
5.56889e-79
9.40981e-76
1.78698e-72
3.79154e-69
8.98818e-66
2.38069e-62
7.04514e-59
2.32945e-55
8.606e-52
3.55238e-48
1.63839e-44
8.4432e-41
4.8617e-37
3.1279e-33
2.2486e-29
1.80614e-25
1.62102e-21
1.62562e-17
1.82158e-13
2.28072e-09
3.19073e-05
0.498771
8713.04
1.70056e+08
3.70346e+12
9.60345e+11
1.90368e+11
3.3659e+10
5.46425e+09
8.21818e+08
1.18533e+08
1.73338e+07
2.64214e+06
420818
70175.2
12270.2
2251.85
434.083
87.9286
18.7219
4.19029
0.985728
0.243648
0.063257
0.017241
0.00492982
0.00147798
0.000464199
0.000152595
5.24527e-05
1.88356e-05
7.05907e-06
2.75811e-06
1.12208e-06
4.74772e-07
2.08695e-07
9.51901e-08
4.49452e-08
2.21923e-08
1.02188e-08
5.73337e-79
9.75116e-76
1.85182e-72
3.92912e-69
9.31435e-66
2.46708e-62
7.30082e-59
2.414e-55
8.91838e-52
3.68133e-48
1.69786e-44
8.74972e-41
5.03821e-37
3.24147e-33
2.33024e-29
1.87172e-25
1.67989e-21
1.68466e-17
1.88774e-13
2.36356e-09
3.30663e-05
0.51689
9029.58
1.76235e+08
3.84328e+12
1.01476e+12
2.02087e+11
3.58103e+10
5.82246e+09
8.76768e+08
1.26584e+08
1.8526e+07
2.82569e+06
450289
75123
13140.3
2412.36
465.173
94.2566
20.076
4.49503
1.05785
0.261598
0.0679535
0.0185323
0.0053027
0.00159099
0.000500121
0.000164558
5.66223e-05
2.03552e-05
7.6375e-06
2.9878e-06
1.21711e-06
5.15677e-07
2.26993e-07
1.03685e-07
4.90283e-08
2.42446e-08
1.11841e-08
5.9186e-79
1.00663e-75
1.91167e-72
4.05611e-69
9.61542e-66
2.54684e-62
7.53686e-59
2.49205e-55
9.20676e-52
3.80038e-48
1.75278e-44
9.03272e-41
5.20118e-37
3.34633e-33
2.40563e-29
1.93229e-25
1.73425e-21
1.73918e-17
1.94883e-13
2.44006e-09
3.41367e-05
0.533623
9321.92
1.81941e+08
3.96773e+12
1.06598e+12
2.13227e+11
3.78649e+10
6.16568e+09
9.29555e+08
1.34335e+08
1.96756e+07
3.00291e+06
478776
79909.3
13982.6
2567.79
495.287
100.386
21.3876
4.79011
1.12767
0.278967
0.0724963
0.0197809
0.00566311
0.0017002
0.000534828
0.000176116
6.06518e-05
2.18243e-05
8.19699e-06
3.21015e-06
1.30918e-06
5.55352e-07
2.44764e-07
1.11947e-07
5.30055e-08
2.62471e-08
1.21282e-08
6.08162e-79
1.03436e-75
1.96434e-72
4.16787e-69
9.88039e-66
2.61702e-62
7.74459e-59
2.56074e-55
9.46057e-52
3.90516e-48
1.80111e-44
9.28182e-41
5.34463e-37
3.43863e-33
2.472e-29
1.9856e-25
1.7821e-21
1.78717e-17
2.00262e-13
2.50741e-09
3.5079e-05
0.548355
9579.31
1.86965e+08
4.07731e+12
1.11365e+12
2.23694e+11
3.9804e+10
6.49061e+09
9.79652e+08
1.41705e+08
2.07706e+07
3.17193e+06
505975
84483.3
14788
2716.49
524.105
106.252
22.6428
5.07246
1.19445
0.295575
0.076838
0.0209736
0.00600724
0.00180443
0.000567942
0.000187141
6.4495e-05
2.32255e-05
8.73078e-06
3.42236e-06
1.39711e-06
5.93274e-07
2.61766e-07
1.19862e-07
5.68204e-08
2.81706e-08
1.30369e-08
6.22372e-79
1.05853e-75
2.01024e-72
4.26528e-69
1.01113e-65
2.6782e-62
7.92564e-59
2.62061e-55
9.68178e-52
3.99648e-48
1.84323e-44
9.4989e-41
5.46964e-37
3.51907e-33
2.52983e-29
2.03205e-25
1.8238e-21
1.82899e-17
2.04949e-13
2.5661e-09
3.59001e-05
0.561192
9803.57
1.91343e+08
4.17278e+12
1.15752e+12
2.33412e+11
4.16119e+10
6.79444e+09
1.0266e+09
1.48626e+08
2.18004e+07
3.33111e+06
531616
88799
15548.5
2856.96
551.339
111.797
23.8292
5.33931
1.25755
0.311261
0.0809367
0.0220989
0.00633174
0.00190266
0.000599133
0.000197521
6.81121e-05
2.45441e-05
9.23307e-06
3.62209e-06
1.47989e-06
6.28995e-07
2.77792e-07
1.27328e-07
6.04234e-08
2.99896e-08
1.38978e-08
6.34606e-79
1.07934e-75
2.04977e-72
4.34915e-69
1.03102e-65
2.73088e-62
8.08155e-59
2.67217e-55
9.87228e-52
4.07512e-48
1.8795e-44
9.68587e-41
5.57731e-37
3.58835e-33
2.57964e-29
2.07207e-25
1.85972e-21
1.86502e-17
2.08986e-13
2.61665e-09
3.66075e-05
0.572251
9996.78
1.95114e+08
4.25504e+12
1.19737e+12
2.42313e+11
4.32744e+10
7.07459e+09
1.06999e+09
1.55032e+08
2.27551e+07
3.47885e+06
555441
92812.6
16256.2
2987.77
576.709
116.964
24.9348
5.58798
1.31634
0.32587
0.0847522
0.0231459
0.00663346
0.00199393
0.000628095
0.000207154
7.14669e-05
2.57665e-05
9.69858e-06
3.80716e-06
1.5566e-06
6.62104e-07
2.92654e-07
1.34257e-07
6.37693e-08
3.16805e-08
1.46992e-08
6.45024e-79
1.09706e-75
2.08342e-72
4.42057e-69
1.04795e-65
2.77573e-62
8.21429e-59
2.71607e-55
1.00345e-51
4.14208e-48
1.91039e-44
9.84504e-41
5.66897e-37
3.64733e-33
2.62204e-29
2.10613e-25
1.89029e-21
1.89568e-17
2.12422e-13
2.65969e-09
3.72096e-05
0.581664
10161.2
1.98324e+08
4.32505e+12
1.23305e+12
2.50341e+11
4.47793e+10
7.32882e+09
1.10944e+09
1.60867e+08
2.36257e+07
3.61375e+06
577216
96483.9
16904.1
3107.58
599.957
121.7
25.9485
5.81597
1.37023
0.339259
0.0882475
0.0241045
0.00690953
0.00207738
0.000654557
0.000215948
7.45276e-05
2.6881e-05
1.01228e-05
3.97575e-06
1.62647e-06
6.92258e-07
3.06191e-07
1.4057e-07
6.68199e-08
3.32234e-08
1.54316e-08
6.53762e-79
1.11192e-75
2.11165e-72
4.48048e-69
1.06215e-65
2.81335e-62
8.32565e-59
2.75289e-55
1.01705e-51
4.19825e-48
1.9363e-44
9.97858e-41
5.74588e-37
3.69681e-33
2.65762e-29
2.13471e-25
1.91595e-21
1.92141e-17
2.15306e-13
2.6958e-09
3.77148e-05
0.589562
10299.2
2.01018e+08
4.3838e+12
1.26443e+12
2.57452e+11
4.61166e+10
7.55522e+09
1.14464e+09
1.6608e+08
2.44046e+07
3.73454e+06
596732
99776.8
17485.6
3215.19
620.848
125.958
26.86
6.021
1.4187
0.351296
0.0913891
0.0249657
0.00715739
0.00215225
0.000678279
0.000223825
7.72668e-05
2.78776e-05
1.05019e-05
4.12631e-06
1.68883e-06
7.19167e-07
3.1827e-07
1.46204e-07
6.95432e-08
3.46014e-08
1.60864e-08
6.60953e-79
1.12415e-75
2.13488e-72
4.52978e-69
1.07384e-65
2.84432e-62
8.4173e-59
2.7832e-55
1.02825e-51
4.24449e-48
1.95763e-44
1.00885e-40
5.80919e-37
3.73756e-33
2.68692e-29
2.15825e-25
1.93707e-21
1.9426e-17
2.17681e-13
2.72553e-09
3.81309e-05
0.596068
10412.9
2.03237e+08
4.4322e+12
1.29142e+12
2.63606e+11
4.7277e+10
7.75208e+09
1.17529e+09
1.70625e+08
2.50844e+07
3.84006e+06
613795
102658
17994.7
3309.46
639.16
129.692
27.6596
6.2009
1.46123
0.36186
0.0941452
0.025721
0.00737463
0.00221783
0.00069904
0.000230713
7.96597e-05
2.87475e-05
1.08324e-05
4.2575e-06
1.74314e-06
7.42586e-07
3.28779e-07
1.51105e-07
7.19126e-08
3.58008e-08
1.66568e-08
6.66741e-79
1.134e-75
2.15358e-72
4.56946e-69
1.08325e-65
2.86924e-62
8.49107e-59
2.8076e-55
1.03727e-51
4.2817e-48
1.97479e-44
1.0177e-40
5.86014e-37
3.77034e-33