/*--------------------------------*- C++ -*----------------------------------*\
| =========                 |                                                 |
| \\      /  F ield         | OpenFOAM: The Open Source CFD Toolbox           |
|  \\    /   O peration     | Version:  2406                                  |
|   \\  /    A nd           | Website:  www.openfoam.com                      |
|    \\/     M anipulation  |                                                 |
\*---------------------------------------------------------------------------*/
FoamFile
{
    version     2.0;
    format      ascii;
    arch        "LSB;label=32;scalar=64";
    class       volScalarField;
    location    "2e-07";
    object      O2_minus;
}
// * * * * * * * * * * * * * * * * * * * * * * * * * * * * * * * * * * * * * //

dimensions      [0 -3 0 0 0 0 0];

internalField   nonuniform List<scalar> 
5880
(
0.00727334
0.0215681
0.0345408
0.0447218
0.0510025
0.0529153
0.050718
0.0452711
0.0377857
0.0295384
0.021628
0.0148184
0.00948476
0.00565887
0.00313855
0.00161299
0.000765375
0.000334085
0.000133691
4.89157e-05
1.63374e-05
4.97839e-06
1.38513e-06
3.52506e-07
8.22633e-08
1.76587e-08
3.49832e-09
6.41804e-10
1.09388e-10
1.74202e-11
2.68441e-12
4.22466e-13
6.96369e-14
1.20388e-14
2.18405e-15
4.15917e-16
8.31511e-17
1.74523e-17
3.84508e-18
8.89129e-19
2.15727e-19
5.48983e-20
1.46463e-20
4.09447e-21
1.19869e-21
3.67245e-22
1.17673e-22
3.94017e-23
1.37749e-23
5.02353e-24
1.90938e-24
7.55681e-25
3.11114e-25
1.33087e-25
5.90899e-26
2.72019e-26
1.29706e-26
6.38827e-27
3.29127e-27
1.57212e-27
0.343729
1.01752
1.62363
2.09085
2.36805
2.43707
2.31502
2.04651
1.69063
1.30723
0.946022
0.640081
0.404196
0.237676
0.129789
0.0656144
0.0306042
0.0131238
0.00515754
0.00185274
0.000607419
0.000181649
4.95841e-05
1.23749e-05
2.83055e-06
5.9516e-07
1.15408e-07
2.07089e-08
3.44982e-09
5.36596e-10
8.07373e-11
1.24126e-11
2.00054e-12
3.38485e-13
6.01588e-14
1.12348e-14
2.20485e-15
4.54715e-16
9.85303e-17
2.24281e-17
5.36121e-18
1.34522e-18
3.54134e-19
9.77589e-20
2.828e-20
8.56677e-21
2.71576e-21
9.00193e-22
3.11709e-22
1.12651e-22
4.24517e-23
1.66656e-23
6.8088e-24
2.89159e-24
1.27507e-24
5.83185e-25
2.76376e-25
1.35341e-25
6.93295e-26
3.29627e-26
10.4148
30.7746
48.9224
62.6556
70.4782
71.9701
67.7942
59.4064
48.6307
37.249
26.6932
17.8758
11.1665
6.49171
3.50299
1.74928
0.805778
0.341263
0.132487
0.0470354
0.0152472
0.00451059
0.00121846
0.000301014
6.81603e-05
1.41863e-05
2.72231e-06
4.83236e-07
7.95951e-08
1.2234e-08
1.81813e-09
2.76076e-10
4.39556e-11
7.34876e-12
1.29098e-12
2.38393e-13
4.62799e-14
9.44536e-15
2.0263e-15
4.56844e-16
1.0821e-16
2.69162e-17
7.02722e-18
1.92462e-18
5.52604e-19
1.66212e-19
5.23373e-20
1.72379e-20
5.93307e-21
2.13201e-21
7.99121e-22
3.12129e-22
1.26914e-22
5.3656e-23
2.35601e-23
1.07329e-23
5.06736e-24
2.47289e-24
1.26225e-24
5.98775e-25
226.62
668.308
1058.09
1347.22
1504.64
1524.32
1423.89
1237.03
1003.82
762.058
541.138
358.989
222.07
127.802
68.2485
33.7228
15.3714
6.4439
2.47755
0.871707
0.280272
0.0823033
0.0220853
0.00542303
0.00122102
0.000252745
4.82355e-05
8.51379e-06
1.39391e-06
2.12854e-07
3.14112e-08
4.73493e-09
7.48294e-10
1.24168e-10
2.16496e-11
3.96815e-12
7.64712e-13
1.54953e-13
3.30096e-14
7.39176e-15
1.73934e-15
4.299e-16
1.11552e-16
3.03727e-17
8.67168e-18
2.59423e-18
8.12683e-19
2.66356e-19
9.12488e-20
3.26443e-20
1.21843e-20
4.7401e-21
1.92009e-21
8.08872e-22
3.53975e-22
1.60743e-22
7.56642e-23
3.68216e-23
1.87414e-23
8.87379e-24
3780.12
11122.8
17530.9
22179.8
24584.2
24700.9
22876.8
19703.6
15851
11929.1
8396.43
5520.21
3383.4
1928.81
1020.15
499.235
225.418
93.6489
35.7065
12.4692
3.98301
1.16316
0.310679
0.0759931
0.0170542
0.00351989
0.00066991
0.00011791
1.92459e-05
2.92871e-06
4.30478e-07
6.4608e-08
1.01632e-08
1.67819e-09
2.91131e-10
5.3087e-11
1.01775e-11
2.05158e-12
4.348e-13
9.68699e-14
2.26809e-14
5.57862e-15
1.44071e-15
3.9047e-16
1.10988e-16
3.30615e-17
1.03145e-17
3.36722e-18
1.14919e-18
4.09641e-19
1.5237e-19
5.9083e-20
2.38585e-20
1.00211e-20
4.37311e-21
1.98061e-21
9.29958e-22
4.51502e-22
2.29254e-22
1.08374e-22
50320.5
147676
231563
290919
319832
318568
292455
249693
199137
148577
103674
67563.3
41041.3
23184.9
12150.5
5892.19
2637.04
1086.45
411.104
142.609
45.2983
13.1685
3.50491
0.855041
0.19151
0.0394676
0.00750218
0.00131884
0.000214972
3.26562e-05
4.78934e-06
7.16901e-07
1.12433e-07
1.85036e-08
3.1985e-09
5.8104e-10
1.1096e-10
2.22784e-11
4.70263e-12
1.04351e-12
2.43351e-13
5.96193e-14
1.53375e-14
4.14114e-15
1.17276e-15
3.48094e-16
1.08222e-16
3.52117e-17
1.19787e-17
4.25676e-18
1.57867e-18
6.10416e-19
2.4583e-19
1.02989e-19
4.4834e-20
2.02586e-20
9.49112e-21
4.59855e-21
2.33005e-21
1.09985e-21
549158
1.60528e+06
2.50065e+06
3.11569e+06
3.39445e+06
3.35027e+06
3.04841e+06
2.58046e+06
2.04089e+06
1.5102e+06
1.04507e+06
675340
406714
227751
118306
56870.4
25237.7
10315.6
3875.51
1336.07
422.217
122.249
32.441
7.89797
1.76665
0.363798
0.069119
0.0121459
0.00197879
0.00030035
4.39931e-05
6.57386e-06
1.02881e-06
1.68899e-07
2.91149e-08
5.27324e-09
1.00385e-09
2.00893e-10
4.22634e-11
9.34643e-12
2.17222e-12
5.30378e-13
1.35986e-13
3.65952e-14
1.03301e-14
3.05647e-15
9.47332e-16
3.07312e-16
1.04245e-16
3.69417e-17
1.36637e-17
5.26979e-18
2.11709e-18
8.84874e-19
3.84351e-19
1.73304e-19
8.1029e-20
3.91852e-20
1.98166e-20
9.34085e-21
4.99343e+06
1.44172e+07
2.21451e+07
2.72195e+07
2.93133e+07
2.86711e+07
2.59118e+07
2.18197e+07
1.71793e+07
1.26542e+07
8.71208e+06
5.59646e+06
3.34752e+06
1.86047e+06
958716
457097
201220
81622.7
30454.4
10436.7
3281.99
946.657
250.52
60.8787
13.6029
2.79966
0.531802
0.0934418
0.0152208
0.00230928
0.000337955
5.04347e-05
7.87966e-06
1.29092e-06
2.22005e-07
4.01049e-08
7.61341e-09
1.51919e-09
3.18644e-10
7.02513e-11
1.62768e-11
3.96189e-12
1.01268e-12
2.71692e-13
7.64635e-14
2.25576e-14
6.97155e-15
2.25526e-15
7.62949e-16
2.69665e-16
9.94911e-17
3.82787e-17
1.53425e-17
6.39842e-18
2.7733e-18
1.24795e-18
5.8236e-19
2.81115e-19
1.41904e-19
6.67939e-20
3.73905e+07
1.00007e+08
1.43064e+08
1.66944e+08
1.75083e+08
1.70987e+08
1.57146e+08
1.35856e+08
1.10148e+08
8.32562e+07
5.84447e+07
3.80087e+07
2.28663e+07
1.27149e+07
6.53096e+06
3.09664e+06
1.35413e+06
545510
202210
68897.1
21561.5
6195.65
1635.03
396.578
88.5099
18.2054
3.4572
0.60737
0.0989159
0.0150012
0.00219359
0.000326958
5.1e-05
8.33893e-06
1.43086e-06
2.57844e-07
4.88187e-08
9.71422e-09
2.03166e-09
4.46604e-10
1.03168e-10
2.5037e-11
6.38058e-12
1.70681e-12
4.7896e-13
1.40896e-13
4.34236e-14
1.40092e-14
4.72682e-15
1.66644e-15
6.13311e-16
2.35409e-16
9.41397e-17
3.91743e-17
1.6944e-17
7.60942e-18
3.54417e-18
1.70776e-18
8.60499e-19
4.04446e-19
1.91471e+08
1.8884e+08
30758.6
0
0
0
0
0
1.7281e+08
2.46375e+08
2.34821e+08
1.80847e+08
1.19813e+08
7.0206e+07
3.69793e+07
1.76964e+07
7.74287e+06
3.10796e+06
1.14613e+06
388450
120994
34633.3
9112.72
2205.62
491.56
101.017
19.1721
3.36678
0.548065
0.0830641
0.0121341
0.0018061
0.000281232
4.58892e-05
7.85578e-06
1.41205e-06
2.66632e-07
5.29069e-08
1.10331e-08
2.41818e-09
5.56949e-10
1.34759e-10
3.42408e-11
9.13249e-12
2.55531e-12
7.4956e-13
2.30369e-13
7.41195e-14
2.49426e-14
8.77106e-15
3.22011e-15
1.23305e-15
4.91966e-16
2.04272e-16
8.81677e-17
3.95157e-17
1.83695e-17
8.83523e-18
4.44376e-18
2.08543e-18
0
0
0
87.4317
90.7321
87.06
78.172
147.781
0
0
0
0
2.04299e+08
2.36828e+08
1.56076e+08
8.1957e+07
3.72093e+07
1.5115e+07
5.58015e+06
1.8856e+06
584960
166801
43750.3
10563.4
2350
482.295
91.444
16.0446
2.60959
0.395105
0.0576407
0.00856503
0.00133102
0.000216692
3.70027e-05
6.63328e-06
1.249e-06
2.47112e-07
5.13782e-08
1.12267e-08
2.57782e-09
6.21825e-10
1.57521e-10
4.18872e-11
1.16857e-11
3.4179e-12
1.04748e-12
3.36092e-13
1.12799e-13
3.95629e-14
1.44883e-14
5.53445e-15
2.20302e-15
9.12684e-16
3.93089e-16
1.75816e-16
8.15704e-17
3.91603e-17
1.96597e-17
9.2113e-18
143.14
141.023
0.218599
0
0
0
0
0
111.216
151.487
136.426
301.638
0
0
1.29551e+08
2.37803e+08
1.38847e+08
6.13336e+07
2.32707e+07
7.91382e+06
2.45269e+06
697264
182305
43896.4
9743.76
1996.16
377.912
66.2186
10.7558
1.62611
0.236817
0.0351177
0.00544478
0.000884158
0.000150567
2.69135e-05
5.05246e-06
9.96547e-07
2.0655e-07
4.49914e-08
1.02982e-08
2.47636e-09
6.25363e-10
1.65784e-10
4.61108e-11
1.3447e-11
4.10921e-12
1.31477e-12
4.40057e-13
1.53937e-13
5.62291e-14
2.14263e-14
8.50867e-15
3.517e-15
1.51144e-15
6.74607e-16
3.12358e-16
1.49672e-16
7.49984e-17
3.50801e-17
0
0
0
8.80624e-05
9.05117e-05
8.49813e-05
7.41178e-05
0.000235227
0
0
0
0
136.271
308.288
0
0
2.33777e+08
1.85012e+08
8.07159e+07
2.85954e+07
8.95143e+06
2.54519e+06
663801
159378
35286.2
7212.78
1362.83
238.361
38.6471
5.83175
0.847492
0.125374
0.0193876
0.00313944
0.000533045
9.49873e-05
1.77756e-05
3.4948e-06
7.22005e-07
1.56758e-07
3.57646e-08
8.57251e-09
2.15797e-09
5.70289e-10
1.58133e-10
4.59768e-11
1.40088e-11
4.46943e-12
1.4918e-12
5.2045e-13
1.89615e-13
7.20731e-14
2.85524e-14
1.17747e-14
5.04898e-15
2.24874e-15
1.0391e-15
4.96937e-16
2.48534e-16
1.16046e-16
0.000202201
0.00019887
6.00512e-07
0
0
0
0
0
0.000130316
0.000167873
0.000141032
0.000508308
0
0
89.8539
607.445
0
1.56106e+08
2.05428e+08
8.65985e+07
2.83586e+07
8.14594e+06
2.1248e+06
508942
112369
22909.9
4318.49
753.625
121.922
18.356
2.66101
0.392602
0.0605376
0.0097733
0.00165421
0.000293829
5.48062e-05
1.07397e-05
2.21141e-06
4.78545e-07
1.08822e-07
2.59992e-08
6.52388e-09
1.71865e-09
4.7509e-10
1.37715e-10
4.18377e-11
1.331e-11
4.43029e-12
1.54147e-12
5.60147e-13
2.12381e-13
8.39339e-14
3.45332e-14
1.47749e-14
6.56648e-15
3.02804e-15
1.44531e-15
7.21467e-16
3.36257e-16
0
0
0
1.62488e-10
1.65574e-10
1.51224e-10
1.27046e-10
5.99594e-10
0
0
0
0
0.000152027
0.000481342
0
0
523.075
0
1.36398e+08
1.99459e+08
7.66702e+07
2.28707e+07
6.00964e+06
1.43847e+06
316800
64412.3
12109.8
2107.98
340.189
51.0887
7.38638
1.08666
0.167056
0.0268858
0.00453606
0.000803089
0.000149302
2.91601e-05
5.98453e-06
1.29079e-06
2.92574e-07
6.96757e-08
1.74282e-08
4.57707e-09
1.26141e-09
3.64564e-10
1.10434e-10
3.50344e-11
1.16296e-11
4.03571e-12
1.46277e-12
5.53247e-13
2.18126e-13
8.95392e-14
3.82249e-14
1.69526e-14
7.80164e-15
3.71662e-15
1.85176e-15
8.61469e-16
5.21706e-10
5.11736e-10
2.35503e-12
0
0
0
0
0
2.64567e-10
3.17935e-10
2.45134e-10
1.19056e-09
0
0
9.55474e-05
0.00208791
0
533.063
0
2.07287e+08
1.67892e+08
5.59957e+07
1.50761e+07
3.62122e+06
796246
161471
30275.5
5256.35
846.091
126.733
18.273
2.6805
0.410846
0.0659164
0.0110861
0.00195647
0.000362559
7.05838e-05
1.44396e-05
3.10456e-06
7.01483e-07
1.6654e-07
4.15307e-08
1.08744e-08
2.98818e-09
8.61165e-10
2.60141e-10
8.23047e-11
2.72491e-11
9.43195e-12
3.41025e-12
1.28675e-12
5.06154e-13
2.07312e-13
8.83141e-14
3.90867e-14
1.79523e-14
8.53617e-15
4.24522e-15
1.97133e-15
0
0
0
5.32792e-16
5.39067e-16
4.74872e-16
3.79647e-16
2.46505e-15
0
0
0
0
2.67295e-10
1.01529e-09
0
0
0.00231114
0
678.589
0
2.49611e+08
1.17386e+08
3.36004e+07
8.16749e+06
1.7967e+06
363587
67998.9
11775.8
1890.74
282.493
40.6238
5.94267
0.908238
0.14529
0.0243626
0.00428658
0.000791963
0.000153717
3.13523e-05
6.72084e-06
1.51414e-06
3.58434e-07
8.91299e-08
2.32728e-08
6.37764e-09
1.83306e-09
5.52287e-10
1.74291e-10
5.75608e-11
1.98761e-11
7.16971e-12
2.69915e-12
1.05941e-12
4.33001e-13
1.84081e-13
8.13117e-14
3.72753e-14
1.76919e-14
8.78301e-15
4.07116e-15
2.41784e-15
2.36172e-15
1.49772e-17
0
0
0
0
0
8.94375e-16
9.84545e-16
6.8235e-16
3.9905e-15
0
0
1.4191e-10
9.33759e-09
0
0.00260153
0
707.183
0
2.01419e+08
6.64622e+07
1.65998e+07
3.66637e+06
741103
138305
23896.4
3828.1
570.636
81.8631
11.9452
1.82087
0.290508
0.0485813
0.00852455
0.00157064
0.000304025
6.18412e-05
1.3221e-05
2.97063e-06
7.01376e-07
1.73957e-07
4.53064e-08
1.23847e-08
3.5509e-09
1.0673e-09
3.3603e-10
1.10723e-10
3.8148e-11
1.37309e-11
5.15832e-12
2.0205e-12
8.24173e-13
3.49706e-13
1.54184e-13
7.05549e-14
3.34295e-14
1.65678e-14
7.66611e-15
0
0
0
3.04374e-21
3.06776e-21
2.57376e-21
1.92368e-21
1.61397e-20
0
0
0
0
6.98839e-16
4.05353e-15
0
6.16484e-10
0
0.000383458
0
280.165
0
2.49149e+08
1.16148e+08
3.05774e+07
6.8182e+06
1.3787e+06
256897
44303.5
7083.63
1053.86
150.876
21.9676
3.34113
0.531824
0.0887277
0.0155321
0.00285497
0.000551312
0.000111875
2.38612e-05
5.34884e-06
1.25995e-06
3.11779e-07
8.1018e-08
2.20972e-08
6.32171e-09
1.89602e-09
5.95679e-10
1.95869e-10
6.73467e-11
2.41923e-11
9.07069e-12
3.54621e-12
1.44385e-12
6.11536e-13
2.69153e-13
1.22956e-13
5.81616e-14
2.8779e-14
1.32934e-14
2.0059e-20
1.94638e-20
1.61663e-22
0
0
0
0
0
4.84582e-21
4.7726e-21
2.89673e-21
2.00598e-20
0
5.73217e-16
0
2.72974e-10
0
0.000149945
0
99.89
0
8.29455e+07
1.77479e+08
5.13443e+07
1.16467e+07
2.36061e+06
439533
75698.5
12085.7
1795.32
256.612
37.2975
5.66232
0.899591
0.149793
0.0261702
0.00480079
0.000925203
0.00018737
3.98829e-05
8.9224e-06
2.09753e-06
5.18009e-07
1.34343e-07
3.65695e-08
1.04417e-08
3.12568e-09
9.80143e-10
3.21683e-10
1.10401e-10
3.95862e-11
1.48159e-11
5.78213e-12
2.35015e-12
9.93717e-13
4.36639e-13
1.99145e-13
9.4054e-14
4.64674e-14
2.14277e-14
0
0
0
2.97821e-26
3.01665e-26
2.36453e-26
1.61013e-26
1.64243e-25
0
0
0
0
2.14615e-20
0
5.8007e-15
0
2.0067e-09
0
0.00081275
0
394.638
0
2.32608e+08
7.90755e+07
1.84251e+07
3.75221e+06
698780
120260
19182.4
2846.62
406.411
58.9944
8.94387
1.41887
0.235902
0.04115
0.00753674
0.00145012
0.000293196
6.23054e-05
1.39155e-05
3.26585e-06
8.05183e-07
2.08467e-07
5.6651e-08
1.61483e-08
4.82573e-09
1.51068e-09
4.94971e-10
1.69589e-10
6.07078e-11
2.26835e-11
8.83812e-12
3.58645e-12
1.51405e-12
6.64225e-13
3.02477e-13
1.4264e-13
7.03664e-14
3.23937e-14
3.01056e-25
2.88949e-25
3.06361e-27
0
0
0
0
0
4.03128e-26
3.44529e-26
4.29358e-26
0
7.17416e-21
0
2.35388e-15
0
9.34484e-10
0
0.000465366
0
297.417
0
2.47439e+08
1.12425e+08
2.72221e+07
5.58452e+06
1.04126e+06
179183
28570.1
4237.51
604.583
87.6883
13.2816
2.10484
0.349567
0.0609068
0.0111419
0.00214112
0.000432352
9.17566e-05
2.04658e-05
4.79662e-06
1.18094e-06
3.05323e-07
8.28522e-08
2.35825e-08
7.03697e-09
2.19962e-09
7.19618e-10
2.46185e-10
8.79927e-11
3.28284e-11
1.27713e-11
5.17463e-12
2.18119e-12
9.55467e-13
4.34453e-13
2.04573e-13
1.00772e-13
4.63125e-14
0
0
0
4.85087e-31
5.08039e-31
3.61185e-31
2.15995e-31
2.50213e-30
0
0
3.18562e-26
0
7.71667e-21
0
2.22143e-15
0
7.97028e-10
0
0.000366809
0
220.488
0
1.74996e+08
1.48553e+08
3.7875e+07
7.84755e+06
1.46635e+06
252465
40258.9
5970.78
851.672
123.475
18.6919
2.96037
0.491299
0.0855342
0.0156338
0.00300165
0.000605548
0.000128387
2.86065e-05
6.69739e-06
1.64709e-06
4.25349e-07
1.15285e-07
3.27736e-08
9.7672e-09
3.04907e-09
9.96192e-10
3.40339e-10
1.21477e-10
4.52572e-11
1.75815e-11
7.11336e-12
2.99407e-12
1.30964e-12
5.94633e-13
2.79593e-13
1.37529e-13
6.30962e-14
8.40594e-30
7.91364e-30
1.0617e-31
0
0
0
0
0
4.80945e-31
2.83911e-30
0
3.80379e-25
0
6.71264e-20
0
1.42602e-14
0
3.71274e-09
0
0.00118254
0
447.83
0
1.83687e+08
5.00248e+07
1.04937e+07
1.9667e+06
338959
54080.7
8023.27
1144.59
165.934
25.1148
3.97643
0.65967
0.114795
0.0209711
0.00402406
0.000811294
0.00017189
3.82714e-05
8.95306e-06
2.19996e-06
5.67613e-07
1.53697e-07
4.36496e-08
1.29947e-08
4.05212e-09
1.32238e-09
4.51236e-10
1.6086e-10
5.98529e-11
2.32211e-11
9.3825e-12
3.94378e-12
1.72267e-12
7.81067e-13
3.66735e-13
1.80139e-13
8.25006e-14
0
0
0
1.18053e-35
1.44074e-35
8.88176e-36
4.43315e-36
5.63226e-35
0
3.22079e-31
0
5.05422e-26
0
9.98468e-21
0
2.574e-15
0
8.82224e-10
0
0.000406559
0
253.481
0
2.1421e+08
6.31934e+07
1.34486e+07
2.52986e+06
436657
69730.7
10351.7
1477.41
214.236
32.4287
5.13439
0.851686
0.148183
0.0270642
0.00519168
0.00104633
0.000221596
4.93153e-05
1.15305e-05
2.83164e-06
7.3012e-07
1.9756e-07
5.6063e-08
1.66763e-08
5.19548e-09
1.69388e-09
5.77413e-10
2.05619e-10
7.64209e-11
2.96141e-11
1.1951e-11
5.01708e-12
2.18865e-12
9.91028e-13
4.64688e-13
2.27944e-13
1.04212e-13
4.61382e-34
4.17865e-34
7.13852e-36
0
0
0
0
5.91042e-36
0
6.48985e-31
0
8.59789e-26
0
1.49887e-20
0
3.50962e-15
0
1.1164e-09
0
0.00048553
0
289.508
0
2.36547e+08
7.68638e+07
1.66228e+07
3.14026e+06
542982
86809.8
12898.4
1842.11
267.246
40.4663
6.40836
1.06316
0.184989
0.0337866
0.00648095
0.00130604
0.000276558
6.15346e-05
1.43839e-05
3.53124e-06
9.10163e-07
2.46168e-07
6.98214e-08
2.07568e-08
6.46257e-09
2.10548e-09
7.17157e-10
2.55165e-10
9.47482e-11
3.66803e-11
1.47872e-11
6.20094e-12
2.702e-12
1.22202e-12
5.72291e-13
2.80374e-13
1.27965e-13
0
0
0
1.22996e-40
6.55463e-40
5.25777e-40
0
1.32834e-35
0
1.14114e-30
0
1.30987e-25
0
2.05147e-20
0
4.42436e-15
0
1.3201e-09
0
0.000546115
0
313.212
0
2.4838e+08
9.05585e+07
1.99254e+07
3.78158e+06
655189
104889
15601.1
2229.93
323.716
49.0414
7.76943
1.28937
0.224411
0.0409957
0.0078652
0.00158522
0.00033571
7.47006e-05
1.74618e-05
4.28674e-06
1.1048e-06
2.98768e-07
8.47234e-08
2.51802e-08
7.83714e-09
2.55227e-09
8.68924e-10
3.08993e-10
1.14664e-10
4.43594e-11
1.78693e-11
7.48712e-12
3.25951e-12
1.47274e-12
6.89005e-13
3.37199e-13
1.53666e-13
5.571e-38
4.57707e-38
1.01915e-39
4.65796e-42
0
4.80705e-40
0
2.51958e-35
0
1.81285e-30
0
1.83225e-25
0
2.60815e-20
0
5.22507e-15
0
1.47159e-09
0
0.000581837
0
322.13
0
2.48609e+08
1.03883e+08
2.32726e+07
4.43823e+06
770615
123547
18397.3
2632.07
382.377
57.9639
9.18778
1.52546
0.265613
0.0485416
0.00931641
0.00187837
0.000397929
8.85736e-05
2.07109e-05
5.08574e-06
1.31103e-06
3.54608e-07
1.00573e-07
2.98937e-08
9.30454e-09
3.03007e-09
1.0315e-09
3.66747e-10
1.36064e-10
5.26222e-11
2.11897e-11
8.87432e-12
3.86138e-12
1.74363e-12
8.15188e-13
3.98667e-13
1.8146e-13
0
0
0
0
0
1.0199e-39
0
4.22832e-35
0
2.60857e-30
0
2.35894e-25
0
3.08616e-20
0
5.78922e-15
0
1.54813e-09
0
0.000587595
0
315.09
0
2.37263e+08
1.16541e+08
2.65926e+07
5.09639e+06
886861
142399
21230.1
3040.33
442.042
67.0542
10.6351
1.76674
0.307788
0.0562788
0.0108071
0.0021801
0.000462103
0.000102916
2.40781e-05
5.91595e-06
1.52591e-06
4.12956e-07
1.17184e-07
3.48485e-08
1.08518e-08
3.53546e-09
1.204e-09
4.28216e-10
1.58911e-10
6.14703e-11
2.47558e-11
1.03684e-11
4.5114e-12
2.03697e-12
9.52168e-13
4.65554e-13
2.11765e-13
1.92526e-41
1.11838e-41
3.36883e-43
9.53951e-44
0
1.83066e-39
0
6.27352e-35
0
3.3993e-30
0
2.79327e-25
0
3.39413e-20
0
6.00637e-15
0
1.53344e-09
0
0.000561018
0
292.288
0
2.15247e+08
1.28338e+08
2.98279e+07
5.7445e+06
1.00188e+06
161113
24049.3
3447.51
501.655
76.151
12.0856
2.00892
0.350186
0.0640705
0.0123112
0.00248519
0.000527149
0.000117491
2.75103e-05
6.76491e-06
1.7464e-06
4.73053e-07
1.3436e-07
3.99934e-08
1.24654e-08
4.06486e-09
1.38552e-09
4.93206e-10
1.83181e-10
7.09142e-11
2.85802e-11
1.19784e-11
5.21519e-12
2.35606e-12
1.10187e-12
5.38986e-13
2.45204e-13
0
0
0
1.75894e-43
0
2.79545e-39
0
8.2302e-35
0
4.00038e-30
0
3.02555e-25
0
3.44337e-20
0
5.78199e-15
0
1.41521e-09
0
0.000500634
0
254.007
0
1.8326e+08
1.39391e+08
3.3002e+07
6.38702e+06
1.11645e+06
179813
26873.4
3856.21
561.59
85.3095
13.5478
2.25334
0.393034
0.0719558
0.0138358
0.00279502
0.000593346
0.000132361
3.10215e-05
7.63615e-06
1.97347e-06
5.35177e-07
1.52189e-07
4.53573e-08
1.41556e-08
4.62212e-09
1.57758e-09
5.6233e-10
2.09136e-10
8.10706e-11
3.27167e-11
1.37298e-11
5.98524e-12
2.70724e-12
1.2676e-12
6.20747e-13
2.82736e-13
5.36722e-45
2.614e-45
0
2.59224e-43
0
3.54776e-39
0
9.3092e-35
0
4.13514e-30
0
2.90963e-25
0
3.12254e-20
0
4.99763e-15
0
1.17642e-09
0
0.000403309
0
199.612
0
1.4127e+08
1.49894e+08
3.61663e+07
7.03433e+06
1.23243e+06
198804
29748.8
4273.16
622.826
94.6781
15.0449
2.50382
0.436977
0.0800488
0.0154018
0.00311358
0.000661489
0.00014769
3.46471e-05
8.53749e-06
2.20891e-06
5.99756e-07
1.70775e-07
5.09665e-08
1.59291e-08
5.20899e-09
1.78063e-09
6.3571e-10
2.36806e-10
9.19459e-11
3.7166e-11
1.56223e-11
6.8213e-12
3.09035e-12
1.44926e-12
7.108e-13
3.2433e-13
0
2.94273e-47
0
2.65172e-43
0
3.38828e-39
0
8.22058e-35
0
3.40357e-30
0
2.25467e-25
0
2.29931e-20
0
3.5263e-15
0
8.01349e-10
0
0.000266982
0
129.167
0
8.98116e+07
1.59796e+08
3.93043e+07
7.68317e+06
1.34925e+06
217998
32662.3
4696.47
685.094
104.216
16.5704
2.75921
0.481803
0.0883079
0.0170007
0.00343895
0.000731122
0.000163363
3.83571e-05
9.46076e-06
2.45038e-06
6.66085e-07
1.89899e-07
5.67494e-08
1.77616e-08
5.81693e-09
1.99154e-09
7.12157e-10
2.65724e-10
1.03349e-10
4.18473e-11
1.76208e-11
7.70735e-12
3.49789e-12
1.64323e-12
8.07326e-13
3.6912e-13
0
1.88231e-47
0
1.20648e-43
0
1.52958e-39
0
3.55976e-35
0
1.40543e-30
0
8.89903e-26
0
8.7158e-21
0
1.29063e-15
0
2.84707e-10
0
9.2544e-05
0
43.885
0
3.00303e+07
1.69009e+08
4.23826e+07
8.32659e+06
1.46568e+06
237191
35583.3
5121.76
747.751
113.824
18.1087
3.01689
0.527052
0.0966473
0.0186153
0.00376758
0.000801463
0.000179199
4.21067e-05
1.03943e-05
2.69467e-06
7.33244e-07
2.09281e-07
6.26178e-08
1.9624e-08
6.43581e-09
2.20667e-09
7.90299e-10
2.95352e-10
1.15062e-10
4.66686e-11
1.96847e-11
8.62512e-12
3.92129e-12
1.84538e-12
9.0824e-13
4.16125e-13
1.70498e-50
0
9.0028e-47
0
7.33977e-43
0
1.03049e-38
0
2.43516e-34
0
9.27964e-30
0
5.51419e-25
0
5.00906e-20
0
6.90452e-15
0
1.44779e-09
0
0.000465722
0
231.572
0
1.77517e+08
4.53709e+07
8.95795e+06
1.5805e+06
256182
38481.4
5544.59
810.149
123.405
19.6439
3.27424
0.572263
0.104982
0.0202293
0.00409606
0.000871772
0.000195027
4.58544e-05
1.13274e-05
2.9389e-06
8.00409e-07
2.28674e-07
6.84938e-08
2.14905e-08
7.05676e-09
2.42281e-09
8.68928e-10
3.25216e-10
1.26891e-10
5.15481e-11
2.17782e-11
9.5583e-12
4.35288e-12
2.05198e-12
1.01165e-12
4.64451e-13
2.60201e-51
0
1.67418e-47
0
1.66372e-43
0
2.77494e-39
0
7.72899e-35
0
3.49306e-30
0
2.48981e-25
0
2.73862e-20
0
4.5762e-15
0
1.14791e-09
0
0.000427623
0
233.886
0
1.8529e+08
4.82421e+07
9.571e+06
1.69254e+06
274777
41326.6
5960.58
871.641
132.859
21.1603
3.52862
0.616973
0.113226
0.021826
0.00442104
0.000941322
0.000210682
4.95604e-05
1.225e-05
3.18036e-06
8.66811e-07
2.4785e-07
7.43057e-08
2.33375e-08
7.67164e-09
2.63701e-09
9.4694e-10
3.54885e-10
1.38659e-10
5.64105e-11
2.38682e-11
1.04917e-11
4.78548e-12
2.2595e-12
1.11576e-12
5.13247e-13
2.73702e-51
0
1.99706e-47
0
2.12183e-43
0
3.58996e-39
0
9.83595e-35
0
4.31264e-30
0
2.97012e-25
0
3.15964e-20
0
5.12384e-15
0
1.25285e-09
0
0.000457037
0
245.848
0
1.92282e+08
5.09724e+07
1.016e+07
1.80071e+06
292790
44089.9
6365.47
931.592
142.089
22.6423
3.77741
0.660725
0.121297
0.0233892
0.00473922
0.00100941
0.000226004
5.31866e-05
1.31524e-05
3.41648e-06
9.31732e-07
2.66596e-07
7.99873e-08
2.51434e-08
8.27302e-09
2.84662e-09
1.02333e-09
3.83962e-10
1.50206e-10
6.11874e-11
2.59244e-11
1.14115e-11
5.21251e-12
2.46475e-12
1.21893e-12
5.61726e-13
2.78113e-51
0
2.25587e-47
0
2.56015e-43
0
4.43479e-39
0
1.20819e-34
0
5.18551e-30
0
3.47365e-25
0
3.59107e-20
0
5.67084e-15
0
1.35492e-09
0
0.000484872
0
256.844
0
1.98506e+08
5.3542e+07
1.072e+07
1.90402e+06
310050
46744.4
6755.22
989.401
151
24.0747
4.01809
0.703076
0.129112
0.0249034
0.00504741
0.00107535
0.00024084
5.66968e-05
1.40257e-05
3.64487e-06
9.94504e-07
2.84716e-07
8.54776e-08
2.68882e-08
8.85408e-09
3.04919e-09
1.09718e-09
4.12088e-10
1.61383e-10
6.58155e-11
2.79188e-11
1.23048e-11
5.62782e-12
2.66467e-12
1.3196e-12
6.09136e-13
2.78368e-51
0
2.46847e-47
0
2.97703e-43
0
5.29721e-39
0
1.44377e-34
0
6.10133e-30
0
3.99426e-25
0
4.02741e-20
0
6.2103e-15
0
1.45298e-09
0
0.000510906
0
266.842
0
2.03985e+08
5.59334e+07
1.12461e+07
2.00152e+06
326390
49263.7
7125.85
1044.46
159.5
25.4424
4.24808
0.743574
0.136589
0.0263524
0.00534237
0.00113846
0.000255036
6.00545e-05
1.48607e-05
3.86316e-06
1.05447e-06
3.02017e-07
9.07175e-08
2.8553e-08
9.40833e-09
3.24239e-09
1.16762e-09
4.38921e-10
1.72051e-10
7.02357e-11
2.98251e-11
1.31594e-11
6.02564e-12
2.85642e-12
1.4163e-12
6.5477e-13
2.75906e-51
0
2.63787e-47
0
3.36024e-43
0
6.14705e-39
0
1.683e-34
0
7.0358e-30
0
4.51997e-25
0
4.45995e-20
0
6.73333e-15
0
1.54582e-09
0
0.000534952
0
275.831
0
2.08759e+08
5.81337e+07
1.17346e+07
2.09243e+06
341668
51624.8
7473.88
1096.25
167.504
26.7318
4.46509
0.781813
0.143653
0.0277217
0.00562118
0.00119812
0.000268453
6.32271e-05
1.56493e-05
4.06922e-06
1.11105e-06
3.18331e-07
9.56559e-08
3.0121e-08
9.93016e-09
3.42423e-09
1.2339e-09
4.64171e-10
1.82091e-10
7.43969e-11
3.16206e-11
1.3965e-11
6.40096e-12
3.03753e-12
1.50773e-12
6.98e-13
2.71822e-51
0
2.76924e-47
0
3.70242e-43
0
6.95812e-39
0
1.91858e-34
0
7.96315e-30
0
5.03805e-25
0
4.87975e-20
0
7.23122e-15
0
1.63234e-09
0
0.000556858
0
283.817
0
2.12872e+08
6.01323e+07
1.21819e+07
2.17603e+06
355756
53806.6
7796.05
1144.26
174.934
27.9298
4.66691
0.817401
0.15023
0.0289974
0.00588097
0.00125371
0.000280956
6.61828e-05
1.63838e-05
4.26105e-06
1.16368e-06
3.33499e-07
1.00244e-07
3.1577e-08
1.04144e-08
3.59288e-09
1.29535e-09
4.87572e-10
1.91394e-10
7.82532e-11
3.3285e-11
1.47121e-11
6.74922e-12
3.20571e-12
1.59273e-12
7.38249e-13
2.66927e-51
0
2.86862e-47
0
4.00024e-43
0
7.70957e-39
0
2.14369e-34
0
8.8579e-30
0
5.53577e-25
0
5.27805e-20
0
7.69578e-15
0
1.71156e-09
0
0.000576509
0
290.815
0
2.16373e+08
6.19212e+07
1.25855e+07
2.2517e+06
368541
55790.5
8089.47
1188.04
181.717
29.0248
4.85152
0.849976
0.156254
0.0301664
0.00611911
0.00130467
0.000292419
6.88925e-05
1.7057e-05
4.43678e-06
1.21188e-06
3.47379e-07
1.0444e-07
3.29073e-08
1.08565e-08
3.74674e-09
1.35138e-09
5.08897e-10
1.99869e-10
8.17652e-11
3.48007e-11
1.53925e-11
7.06656e-12
3.35905e-12
1.67029e-12
7.75023e-13
2.61808e-51
0
2.94198e-47
0
4.25327e-43
0
8.38585e-39
0
2.35233e-34
0
9.696e-30
0
6.00093e-25
0
5.64657e-20
0
8.11951e-15
0
1.78264e-09
0
0.000593821
0
296.853
0
2.1931e+08
6.34946e+07
1.29429e+07
2.31894e+06
379926
57560.4
8351.61
1227.2
187.791
30.0061
5.0171
0.879216
0.161665
0.0312168
0.00633318
0.0013505
0.000302727
7.13292e-05
1.76622e-05
4.59473e-06
1.25518e-06
3.5984e-07
1.08204e-07
3.40999e-08
1.12525e-08
3.88445e-09
1.40148e-09
5.27953e-10
2.07437e-10
8.49002e-11
3.61534e-11
1.59997e-11
7.34976e-12
3.49594e-12
1.73956e-12
8.07905e-13
2.56888e-51
0
2.99478e-47
0
4.46285e-43
0
8.97585e-39
0
2.53935e-34
0
1.04552e-29
0
6.422e-25
0
5.97752e-20
0
8.49551e-15
0
1.84482e-09
0
0.000608729
0
301.955
0
2.2173e+08
6.48479e+07
1.32521e+07
2.37729e+06
389825
59101.6
8580.17
1261.39
193.097
30.8641
5.16198
0.904818
0.166405
0.0321375
0.00652091
0.00139071
0.000311773
7.34675e-05
1.81933e-05
4.7333e-06
1.29315e-06
3.70762e-07
1.11501e-07
3.51437e-08
1.15988e-08
4.00474e-09
1.44521e-09
5.4457e-10
2.14032e-10
8.763e-11
3.73306e-11
1.6528e-11
7.59613e-12
3.61504e-12
1.79985e-12
8.36552e-13
2.52461e-51
0
3.03176e-47
0
4.63149e-43
0
9.47274e-39
0
2.70068e-34
0
1.11168e-29
0
6.78896e-25
0
6.26416e-20
0
8.81799e-15
0
1.89753e-09
0
0.000621194
0
306.151
0
2.23676e+08
6.59785e+07
1.35118e+07
2.42641e+06
398172
60403
8773.36
1290.31
197.59
31.591
5.28481
0.926536
0.170429
0.0329195
0.00668043
0.00142488
0.000319465
7.52862e-05
1.8645e-05
4.85115e-06
1.32543e-06
3.80045e-07
1.14301e-07
3.60295e-08
1.18924e-08
4.10666e-09
1.48222e-09
5.58621e-10
2.19603e-10
8.9934e-11
3.83235e-11
1.69733e-11
7.80375e-12
3.7154e-12
1.85067e-12
8.60718e-13
2.4873e-51
0
3.05683e-47
0
4.76202e-43
0
9.87243e-39
0
2.83313e-34
0
1.16648e-29
0
7.09312e-25
0
6.50064e-20
0
9.08195e-15
0
1.94025e-09
0
0.000631187
0
309.471
0
2.25186e+08
6.68844e+07
1.37209e+07
2.46602e+06
404913
61454.9
8929.65
1313.72
201.229
32.1803
5.38441
0.944158
0.173695
0.0335547
0.00681008
0.00145268
0.000325722
7.67663e-05
1.90128e-05
4.94709e-06
1.35171e-06
3.87599e-07
1.16579e-07
3.67496e-08
1.21309e-08
4.18935e-09
1.51222e-09
5.69997e-10
2.24109e-10
9.17957e-11
3.91251e-11
1.73326e-11
7.9712e-12
3.79633e-12
1.89165e-12
8.80225e-13
2.45832e-51
0
3.07302e-47
0
4.85715e-43
0
1.01729e-38
0
2.93433e-34
0
1.20866e-29
0
7.32747e-25
0
6.68222e-20
0
9.28344e-15
0
1.97262e-09
0
0.000638693
0
311.937
0
2.2629e+08
6.75646e+07
1.38783e+07
2.49591e+06
410003
62250
9047.86
1331.44
203.984
32.6265
5.45989
0.95752
0.176173
0.0340369
0.00690856
0.0014738
0.000330481
7.78925e-05
1.92927e-05
5.02014e-06
1.37172e-06
3.9335e-07
1.18313e-07
3.72974e-08
1.23122e-08
4.25216e-09
1.53498e-09
5.78619e-10
2.2752e-10
9.32037e-11
3.97308e-11
1.76039e-11
8.09757e-12
3.8574e-12
1.92258e-12
8.94969e-13
2.43854e-51
0
3.08256e-47
0
4.91916e-43
0
1.03733e-38
0
3.00263e-34
0
1.23729e-29
0
7.48665e-25
0
6.80528e-20
0
9.41942e-15
0
1.99436e-09
0
0.000643701
0
313.57
0
2.27012e+08
6.80183e+07
1.39836e+07
2.51592e+06
413413
62782.9
9127.09
1343.32
205.832
32.926
5.51056
0.966493
0.177838
0.0343612
0.00697484
0.00148803
0.00033369
7.86527e-05
1.94818e-05
5.06953e-06
1.38526e-06
3.97241e-07
1.19486e-07
3.76678e-08
1.24347e-08
4.29458e-09
1.55034e-09
5.84429e-10
2.29816e-10
9.41504e-11
4.01377e-11
1.77861e-11
8.18241e-12
3.89842e-12
1.94338e-12
9.04907e-13
2.42849e-51
0
3.08693e-47
0
4.94968e-43
0
1.04734e-38
0
3.03701e-34
0
1.25175e-29
0
7.56712e-25
0
6.86741e-20
0
9.48791e-15
0
2.00527e-09
0
0.000646206
0
314.384
0
2.2737e+08
6.82453e+07
1.40363e+07
2.52594e+06
415121
63049.9
9166.8
1349.27
206.758
33.0761
5.53597
0.970999
0.178676
0.0345245
0.00700828
0.00149522
0.000335316
7.90388e-05
1.9578e-05
5.09471e-06
1.39217e-06
3.99231e-07
1.20086e-07
3.78575e-08
1.24974e-08
4.31626e-09
1.55818e-09
5.87393e-10
2.30986e-10
9.46322e-11
4.03447e-11
1.78788e-11
8.22567e-12
3.91939e-12
1.95405e-12
9.10056e-13
2.42841e-51
0
3.08684e-47
0
4.94956e-43
0
1.04732e-38
0
3.03696e-34
0
1.25173e-29
0
7.56706e-25
0
6.86738e-20
0
9.48788e-15
0
2.00526e-09
0
0.000646206
0
314.383
0
2.2737e+08
6.82452e+07
1.40363e+07
2.52593e+06
415118
63049.3
9166.68
1349.25
206.755
33.0758
5.53592
0.970998
0.178677
0.0345252
0.00700853
0.00149531
0.000335341
7.90463e-05
1.95803e-05
5.0954e-06
1.39238e-06
3.99297e-07
1.20107e-07
3.78642e-08
1.24997e-08
4.31704e-09
1.55846e-09
5.87495e-10
2.31026e-10
9.4649e-11
4.03523e-11
1.78825e-11
8.2276e-12
3.92048e-12
1.9547e-12
9.10473e-13
2.43829e-51
0
3.08228e-47
0
4.91877e-43
0
1.03726e-38
0
3.00248e-34
0
1.23724e-29
0
7.48646e-25
0
6.80517e-20
0
9.41932e-15
0
1.99434e-09
0
0.000643699
0
313.57
0
2.27012e+08
6.80181e+07
1.39834e+07
2.51588e+06
413403
62781.2
9126.76
1343.27
205.824
32.925
5.51044
0.966494
0.177843
0.0343635
0.00697563
0.00148828
0.000333765
7.8675e-05
1.94884e-05
5.07154e-06