/*--------------------------------*- C++ -*----------------------------------*\
| =========                 |                                                 |
| \\      /  F ield         | OpenFOAM: The Open Source CFD Toolbox           |
|  \\    /   O peration     | Version:  2406                                  |
|   \\  /    A nd           | Website:  www.openfoam.com                      |
|    \\/     M anipulation  |                                                 |
\*---------------------------------------------------------------------------*/
FoamFile
{
    version     2.0;
    format      ascii;
    arch        "LSB;label=32;scalar=64";
    class       volScalarField;
    location    "2e-07";
    object      O2_plus;
}
// * * * * * * * * * * * * * * * * * * * * * * * * * * * * * * * * * * * * * //

dimensions      [0 -3 0 0 0 0 0];

internalField   nonuniform List<scalar> 
5880
(
0.00723776
0.0214626
0.0343717
0.0445028
0.0507525
0.0526556
0.0504686
0.0450478
0.0375987
0.0293916
0.02152
0.014744
0.0094368
0.00563005
0.00312242
0.00160461
0.000761348
0.000332299
0.000132963
4.86431e-05
1.6244e-05
4.94912e-06
1.37674e-06
3.50306e-07
8.17344e-08
1.75418e-08
3.47452e-09
6.37327e-10
1.08606e-10
1.72932e-11
2.66451e-12
4.19293e-13
6.91084e-14
1.19467e-14
2.16722e-15
4.12693e-16
8.25032e-17
1.73157e-17
3.81488e-18
8.82122e-19
2.14023e-19
5.44634e-20
1.453e-20
4.06191e-21
1.18915e-21
3.64316e-22
1.16733e-22
3.90867e-23
1.36647e-23
4.9833e-24
1.89408e-24
7.4962e-25
3.08617e-25
1.32018e-25
5.86152e-26
2.69833e-26
1.28663e-26
6.33699e-27
3.26426e-27
1.56213e-27
0.341466
1.01082
1.61295
2.07712
2.35252
2.42112
2.29988
2.03315
1.67959
1.29869
0.939847
0.635902
0.401556
0.236122
0.128939
0.0651837
0.0304024
0.0130368
0.00512303
0.0018402
0.000603251
0.000180383
4.92324e-05
1.22855e-05
2.80973e-06
5.90703e-07
1.14529e-07
2.05488e-08
3.42278e-09
5.32338e-10
8.00913e-11
1.23128e-11
1.98439e-12
3.35746e-13
5.96709e-14
1.11435e-14
2.18692e-15
4.51013e-16
9.77277e-17
2.22453e-17
5.3175e-18
1.33425e-18
3.51246e-19
9.69615e-20
2.80493e-20
8.49689e-21
2.69361e-21
8.92851e-22
3.09168e-22
1.11732e-22
4.21056e-23
1.65297e-23
6.75331e-24
2.86803e-24
1.26469e-24
5.78434e-25
2.74124e-25
1.34241e-25
6.87539e-26
3.27506e-26
10.3378
30.547
48.5611
62.1939
69.9602
71.4424
67.2983
58.9728
48.2764
36.978
26.4992
17.746
11.0855
6.4447
3.47763
1.73661
0.799935
0.33878
0.131518
0.0466887
0.0151337
0.00447664
0.00120916
0.000298687
6.7626e-05
1.40736e-05
2.70041e-06
4.79305e-07
7.89413e-08
1.21326e-08
1.80299e-09
2.73773e-10
4.35886e-11
7.28741e-12
1.28021e-12
2.36405e-13
4.58942e-14
9.36669e-15
2.00943e-15
4.53045e-16
1.07311e-16
2.66928e-17
6.96894e-18
1.90867e-18
5.48029e-19
1.64837e-19
5.19048e-20
1.70956e-20
5.88411e-21
2.11443e-21
7.92536e-22
3.09558e-22
1.25869e-22
5.32147e-23
2.33664e-23
1.06447e-23
5.02574e-24
2.45263e-24
1.2517e-24
5.94898e-25
224.83
663.034
1049.76
1336.63
1492.85
1512.42
1412.81
1227.42
996.042
756.168
536.964
356.225
220.364
126.821
67.7256
33.4646
15.2537
6.39446
2.45848
0.864958
0.278086
0.0816553
0.0219095
0.0053794
0.00121108
0.000250666
4.78348e-05
8.44242e-06
1.38214e-06
2.11045e-07
3.11433e-08
4.69455e-09
7.41915e-10
1.23111e-10
2.14656e-11
3.93448e-12
7.58234e-13
1.53643e-13
3.27309e-14
7.32945e-15
1.7247e-15
4.26287e-16
1.10616e-16
3.01182e-17
8.59911e-18
2.57255e-18
8.05899e-19
2.64135e-19
9.04889e-20
3.23728e-20
1.20831e-20
4.70075e-21
1.90416e-21
8.02169e-22
3.51045e-22
1.59413e-22
7.50385e-23
3.6518e-23
1.85837e-23
8.81602e-24
3748.96
11031.2
17386.9
21998.3
24383.7
24500.1
22691.5
19544.4
15723.3
11833.2
8329.1
5476.05
3356.4
1913.44
1012.04
495.271
223.629
92.9049
35.4221
12.3695
3.95096
1.15373
0.308137
0.0753657
0.0169121
0.00349029
0.000664228
0.000116903
1.90804e-05
2.9034e-06
4.26749e-07
6.40489e-08
1.00753e-08
1.66372e-09
2.88626e-10
5.26312e-11
1.00903e-11
2.03404e-12
4.31091e-13
9.60452e-14
2.24882e-14
5.53131e-15
1.42852e-15
3.8717e-16
1.10052e-16
3.2783e-17
1.02277e-17
3.33894e-18
1.13955e-18
4.0621e-19
1.51096e-19
5.85893e-20
2.36593e-20
9.93755e-21
4.33669e-21
1.96412e-21
9.22224e-22
4.47758e-22
2.27314e-22
1.07665e-22
49892.8
146424
229607
288472
317153
315911
290023
247622
197490
147350
102820
67008
40704.7
22995.1
12051.3
5844.15
2615.56
1077.59
407.749
141.442
44.9255
13.0595
3.47567
0.847852
0.189887
0.0391305
0.00743765
0.00130743
0.000213102
3.23708e-05
4.74742e-06
7.10636e-07
1.11452e-07
1.83426e-08
3.17074e-09
5.7601e-10
1.10001e-10
2.20865e-11
4.66221e-12
1.03456e-12
2.41268e-13
5.91101e-14
1.52068e-14
4.10591e-15
1.1628e-15
3.45143e-16
1.07306e-16
3.49141e-17
1.18777e-17
4.2209e-18
1.56539e-18
6.05286e-19
2.43767e-19
1.02126e-19
4.44585e-20
2.00891e-20
9.41177e-21
4.56022e-21
2.31024e-21
1.09263e-21
544394
1.59151e+06
2.47943e+06
3.08949e+06
3.3661e+06
3.32237e+06
3.02305e+06
2.55897e+06
2.02387e+06
1.49758e+06
1.03633e+06
669693
403315
225850
117321
56397.3
25027.9
10229.9
3843.27
1324.93
418.683
121.22
32.1664
7.83067
1.7515
0.360657
0.0685185
0.0120398
0.00196143
0.000297705
4.36052e-05
6.51601e-06
1.01978e-06
1.67419e-07
2.88606e-08
5.2273e-09
9.95122e-10
1.99151e-10
4.18979e-11
9.26578e-12
2.15352e-12
5.25822e-13
1.34821e-13
3.62821e-14
1.02419e-14
3.03041e-15
9.3927e-16
3.04702e-16
1.0336e-16
3.66288e-17
1.35482e-17
5.22528e-18
2.09923e-18
8.77419e-19
3.81117e-19
1.71847e-19
8.03484e-20
3.8857e-20
1.96474e-20
9.27922e-21
4.95061e+06
1.43027e+07
2.19812e+07
2.70277e+07
2.91108e+07
2.84716e+07
2.57266e+07
2.16582e+07
1.70474e+07
1.25539e+07
8.64124e+06
5.55015e+06
3.31951e+06
1.84481e+06
950627
453238
199522
80933.7
30197.2
10348.3
3254.14
938.588
248.374
60.3544
13.485
2.77527
0.527147
0.0926201
0.0150864
0.00228883
0.000334959
4.99885e-05
7.81011e-06
1.27956e-06
2.20056e-07
3.97537e-08
7.54691e-09
1.50595e-09
3.15874e-10
6.96421e-11
1.61359e-11
3.92769e-12
1.00396e-12
2.69356e-13
7.58073e-14
2.23644e-14
6.91194e-15
2.23601e-15
7.56447e-16
2.6737e-16
9.86457e-17
3.79539e-17
1.52125e-17
6.34426e-18
2.74986e-18
1.23742e-18
5.77446e-19
2.7875e-19
1.40687e-19
6.63514e-20
3.71345e+07
9.97952e+07
1.43149e+08
1.67032e+08
1.75162e+08
1.71047e+08
1.57181e+08
1.35866e+08
1.09896e+08
8.28934e+07
5.80987e+07
3.77423e+07
2.26899e+07
1.26115e+07
6.47635e+06
3.0704e+06
1.34259e+06
540851
200481
68306.9
21376.4
6142.28
1620.89
393.132
87.7373
18.0457
3.42675
0.602
0.0980384
0.0148677
0.00217406
0.000324053
5.05479e-05
8.26521e-06
1.41824e-06
2.55576e-07
4.83905e-08
9.62921e-09
2.01392e-09
4.42714e-10
1.02271e-10
2.48198e-11
6.32536e-12
1.69207e-12
4.74831e-13
1.39684e-13
4.30506e-14
1.38891e-14
4.68636e-15
1.6522e-15
6.08076e-16
2.33403e-16
9.33384e-17
3.88412e-17
1.68002e-17
7.54488e-18
3.51414e-18
1.69333e-18
8.53086e-19
4.01755e-19
1.91577e+08
1.88973e+08
175976
132464
138168
133964
122088
248417
1.73289e+08
2.4662e+08
2.34863e+08
1.80773e+08
1.19406e+08
6.97769e+07
3.67028e+07
1.75524e+07
7.67749e+06
3.08132e+06
1.13624e+06
385089
119945
34332.1
9033.22
2186.31
487.24
100.126
19.0024
3.33687
0.543182
0.0823219
0.0120257
0.00178999
0.000278729
4.54819e-05
7.78624e-06
1.39958e-06
2.64283e-07
5.2442e-08
1.09364e-08
2.39702e-09
5.52088e-10
1.33585e-10
3.39432e-11
9.05327e-12
2.53318e-12
7.43082e-13
2.28381e-13
7.34811e-14
2.47281e-14
8.69576e-15
3.1925e-15
1.22249e-15
4.8776e-16
2.02527e-16
8.74158e-17
3.91791e-17
1.82131e-17
8.76024e-18
4.40532e-18
2.0715e-18
179942
177383
220.027
123.638
128.186
123.304
111.455
359.302
153571
214329
199710
344618
2.0489e+08
2.36896e+08
1.55698e+08
8.14467e+07
3.6921e+07
1.49885e+07
5.53212e+06
1.86919e+06
579847
165339
43365.7
10470.3
2329.22
478.017
90.6305
15.9014
2.58625
0.391561
0.0571235
0.00848835
0.00131914
0.000214762
3.66739e-05
6.57447e-06
1.23795e-06
2.44931e-07
5.09258e-08
1.1128e-08
2.55522e-09
6.16385e-10
1.56146e-10
4.15223e-11
1.15841e-11
3.38823e-12
1.03841e-12
3.33185e-13
1.11825e-13
3.92217e-14
1.43635e-14
5.48686e-15
2.1841e-15
9.04856e-16
3.89721e-16
1.74312e-16
8.0873e-17
3.88264e-17
1.94888e-17
9.14947e-18
197.755
194.789
0.297668
0.134903
0.138921
0.132448
0.118628
0.525507
158.141
215.98
196.646
522.339
189620
344209
1.30243e+08
2.37983e+08
1.3824e+08
6.08877e+07
2.3078e+07
7.84542e+06
2.43117e+06
691111
180691
43506.9
9657.1
1978.36
374.534
65.6252
10.6592
1.61147
0.234684
0.0348021
0.00539596
0.00087625
0.000149224
2.6674e-05
5.00759e-06
9.87717e-07
2.04724e-07
4.45945e-08
1.02075e-08
2.4546e-09
6.1988e-10
1.64333e-10
4.57081e-11
1.33297e-11
4.07345e-12
1.30334e-12
4.3624e-13
1.52604e-13
5.57428e-14
2.12413e-14
8.43529e-15
3.48671e-15
1.49844e-15
6.68809e-16
3.09676e-16
1.4839e-16
7.43439e-17
3.48436e-17
0.252991
0.248952
0.000445799
0.000171152
0.000174911
0.000165101
0.000146361
0.000826998
0.188021
0.250674
0.222455
0.790593
200.522
486.926
126426
470094
2.34392e+08
1.84588e+08
8.016e+07
2.83594e+07
8.87356e+06
2.52268e+06
657892
157956
34970.6
7148.13
1350.59
236.216
38.2985
5.77901
0.839827
0.124243
0.0192131
0.00311124
0.000528269
9.41382e-05
1.76171e-05
3.4637e-06
7.15594e-07
1.55369e-07
3.54484e-08
8.49687e-09
2.13897e-09
5.65277e-10
1.56746e-10
4.55742e-11
1.38863e-11
4.43042e-12
1.4788e-12
5.15923e-13
1.87968e-13
7.1448e-14
2.8305e-14
1.16728e-14
5.00535e-15
2.22933e-15
1.03013e-15
4.92664e-16
2.46356e-16
1.1526e-16
0.000375323
0.000368882
7.46424e-07
2.51454e-07
2.54775e-07
2.37772e-07
2.0835e-07
1.43353e-06
0.000256727
0.000333186
0.000287361
0.00126656
0.240486
0.719164
138.649
942.673
402182
1.56846e+08
2.0522e+08
8.60092e+07
2.81227e+07
8.07441e+06
2.10583e+06
504375
111359
22703.4
4279.5
746.81
120.817
18.1893
2.63684
0.389044
0.0599903
0.00968516
0.00163933
0.000291191
5.43154e-05
1.06437e-05
2.19169e-06
4.74287e-07
1.07856e-07
2.57688e-08
6.46618e-09
1.70348e-09
4.70904e-10
1.36504e-10
4.14704e-11
1.31934e-11
4.39153e-12
1.52801e-12
5.5526e-13
2.10531e-13
8.32037e-14
3.42331e-14
1.46467e-14
6.50955e-15
3.00181e-15
1.43283e-15
7.15117e-16
3.33969e-16
6.43828e-07
6.31833e-07
1.40325e-09
4.26424e-10
4.27869e-10
3.9417e-10
3.40875e-10
2.76523e-09
4.0067e-07
5.04543e-07
4.21514e-07
2.19434e-06
0.000325018
0.0011359
0.17078
2.05277
802.699
314030
1.3717e+08
1.99161e+08
7.6126e+07
2.26766e+07
5.95624e+06
1.42552e+06
313936
63828.8
11999.9
2088.83
337.092
50.6226
7.31898
1.07677
0.16554
0.0266423
0.00449507
0.000795848
0.000147959
2.88984e-05
5.93093e-06
1.27925e-06
2.89964e-07
6.90555e-08
1.72734e-08
4.53649e-09
1.25025e-09
3.61344e-10
1.09461e-10
3.4726e-11
1.15274e-11
4.0003e-12
1.44995e-12
5.48407e-13
2.16221e-13
8.87579e-14
3.78918e-14
1.68051e-14
7.73378e-15
3.68438e-15
1.83539e-15
8.5558e-16
1.27432e-09
1.24828e-09
2.96612e-12
8.32586e-13
8.26197e-13
7.49856e-13
6.38775e-13
5.96255e-12
7.11626e-10
8.66221e-10
6.98354e-10
4.14572e-09
4.91986e-07
1.93645e-06
0.000235185
0.00481798
1.94823
801.292
379458
2.08e+08
1.67324e+08
5.55676e+07
1.49448e+07
3.58864e+06
789018
160001
29999.4
5208.35
838.353
125.572
18.1055
2.656
0.4071
0.0653168
0.0109855
0.00193875
0.000359284
6.99476e-05
1.43097e-05
3.0767e-06
6.95201e-07
1.65052e-07
4.11603e-08
1.07776e-08
2.96163e-09
8.53527e-10
2.57838e-10
8.15773e-11
2.70087e-11
9.34886e-12
3.38025e-12
1.27545e-12
5.01714e-13
2.05496e-13
8.75412e-14
3.8745e-14
1.77955e-14
8.46183e-15
4.20754e-15
1.95779e-15
2.90707e-12
2.84123e-12
7.048e-15
1.86857e-15
1.8308e-15
1.63316e-15
1.36731e-15
1.43997e-14
1.43281e-12
1.67865e-12
1.30039e-12
8.56486e-12
8.2938e-10
3.57534e-09
3.61492e-07
1.22295e-05
0.00519832
2.24715
1020.09
498305
2.50167e+08
1.16737e+08
3.33236e+07
8.09465e+06
1.78035e+06
360262
67375.8
11667.7
1873.37
279.893
40.2498
5.88812
0.899921
0.143963
0.0241406
0.00424761
0.00078478
0.000152326
3.10692e-05
6.66028e-06
1.50052e-06
3.55218e-07
8.83318e-08
2.30648e-08
6.32075e-09
1.81674e-09
5.47379e-10
1.72745e-10
5.7051e-11
1.97003e-11
7.1064e-12
2.67535e-12
1.05008e-12
4.29193e-13
1.82463e-13
8.05981e-14
3.69485e-14
1.75372e-14
8.70476e-15
4.04308e-15
7.63889e-15
7.44505e-15
1.87871e-17
4.81412e-18
4.64784e-18
4.06325e-18
3.33403e-18
3.89506e-17
3.25726e-15
3.65491e-15
2.7074e-15
1.93394e-14
1.54792e-12
7.14318e-12
6.16419e-10
3.12845e-08
1.35312e-05
0.00594189
2.61641
1112.69
476490
2.01371e+08
6.59823e+07
1.64551e+07
3.63306e+06
734302
137032
23676.2
3792.78
565.361
81.1064
11.8351
1.80413
0.287844
0.0481369
0.00844676
0.00155634
0.000301263
6.12807e-05
1.31014e-05
2.94382e-06
6.95061e-07
1.72393e-07
4.49001e-08
1.22738e-08
3.51918e-09
1.05778e-09
3.33038e-10
1.09738e-10
3.78094e-11
1.36092e-11
5.11267e-12
2.00264e-12
8.16898e-13
3.46622e-13
1.52826e-13
6.9934e-14
3.31361e-14
1.64197e-14
7.61302e-15
2.31223e-17
2.24573e-17
5.59336e-20
1.42261e-20
1.34997e-20
1.15247e-20
9.23632e-21
1.17874e-19
8.32586e-18
8.89775e-18
6.26854e-18
4.76248e-17
3.18572e-15
1.91331e-14
3.41875e-12
1.50238e-09
9.68145e-07
0.00065794
0.472573
359.526
290453
2.49623e+08
1.15544e+08
3.03234e+07
6.75668e+06
1.36602e+06
254524
43893.6
7018.01
1044.08
149.477
21.7644
3.3103
0.52693
0.0879132
0.0153899
0.0028289
0.000546288
0.000110858
2.36448e-05
5.30042e-06
1.24857e-06
3.08968e-07
8.0289e-08
2.18987e-08
6.26504e-09
1.87905e-09
5.90358e-10
1.94122e-10
6.6747e-11
2.39772e-11
8.99014e-12
3.51476e-12
1.43106e-12
6.06126e-13
2.66774e-13
1.2187e-13
5.76494e-14
2.85207e-14
1.3201e-14
8.06924e-20
7.80311e-20
1.84466e-22
4.82042e-23
4.48139e-23
3.71945e-23
2.8992e-23
3.98269e-22
2.38242e-20
2.40974e-20
1.60625e-20
1.33912e-19
1.05956e-17
1.9128e-15
1.06255e-12
6.25859e-10
3.87836e-07
0.000253473
0.17533
128.733
100568
8.37592e+07
1.77251e+08
5.0954e+07
1.15431e+07
2.33889e+06
435460
74995.5
11973.4
1778.61
254.223
36.9513
5.60991
0.891287
0.148414
0.0259299
0.0047568
0.000916746
0.000185662
3.952e-05
8.84139e-06
2.07853e-06
5.13325e-07
1.33131e-07
3.62401e-08
1.03479e-08
3.09763e-09
9.71361e-10
3.18805e-10
1.09415e-10
3.92331e-11
1.46839e-11
5.7307e-12
2.32927e-12
9.84897e-13
4.32767e-13
1.97381e-13
9.32228e-14
4.60491e-14
2.12781e-14
3.25239e-22
3.12779e-22
6.62822e-25
1.87326e-25
1.69881e-25
1.36323e-25
1.02804e-25
1.49803e-24
7.5953e-23
7.22087e-23
4.56134e-23
5.61742e-22
1.04187e-19
4.01821e-17
1.9199e-14
9.55889e-12
4.96764e-09
2.69919e-06
0.00153408
0.910776
562.646
358801
2.32693e+08
7.85616e+07
1.8265e+07
3.71777e+06
692289
119139
19003.5
2820.03
402.617
58.4453
8.86086
1.40574
0.233725
0.0407711
0.00746751
0.00143684
0.000290515
6.1737e-05
1.37888e-05
3.23619e-06
7.97884e-07
2.06581e-07
5.61394e-08
1.60027e-08
4.7823e-09
1.49711e-09
4.90532e-10
1.6807e-10
6.01648e-11
2.24809e-11
8.75927e-12
3.55449e-12
1.50057e-12
6.58318e-13
2.99788e-13
1.41375e-13
6.97309e-14
3.21667e-14
1.51817e-24
1.44967e-24
2.49767e-27
8.35408e-28
7.34721e-28
5.66106e-28
4.10323e-28
6.2477e-27
2.68326e-25
2.3827e-25
2.69268e-25
5.83984e-23
2.61587e-20
1.24643e-17
6.2634e-15
3.32959e-12
1.8798e-09
1.1307e-06
0.00072645
0.499551
368.262
291400
2.47807e+08
1.11878e+08
2.69937e+07
5.53349e+06
1.03157e+06
177510
28302.9
4197.83
598.925
86.8703
13.158
2.08531
0.346333
0.0603448
0.0110393
0.00212145
0.000428391
9.09179e-05
2.02791e-05
4.75296e-06
1.17022e-06
3.02554e-07
8.21024e-08
2.33694e-08
6.9735e-09
2.17982e-09
7.13147e-10
2.43974e-10
8.72036e-11
3.25344e-11
1.26571e-11
5.12838e-12
2.16172e-12
9.46945e-13
4.3058e-13
2.02754e-13
9.98593e-14
4.59867e-14
8.23901e-27
7.79407e-27
8.8017e-30
4.27994e-30
3.62053e-30
2.65542e-30
1.83491e-30
2.87449e-29
1.04497e-27
1.26732e-27
1.60241e-25
6.46708e-23
2.74422e-20
1.2288e-17
5.83522e-15
2.95029e-12
1.59324e-09
9.21306e-07
0.000571611
0.381112
273.382
211177
1.75762e+08
1.48171e+08
3.75723e+07
7.77634e+06
1.45271e+06
250102
39881.6
5914.75
843.686
122.321
18.5177
2.93286
0.486746
0.0847435
0.0154897
0.00297403
0.00059999
0.000127211
2.83451e-05
6.63632e-06
1.6321e-06
4.21485e-07
1.1424e-07
3.24769e-08
9.67892e-09
3.02156e-09
9.87214e-10
3.37276e-10
1.20385e-10
4.48509e-11
1.74238e-11
7.04962e-12
2.96727e-12
1.29793e-12
5.89318e-13
2.771e-13
1.3628e-13
6.26506e-14
5.22531e-29
4.88128e-29
1.32926e-32
2.52249e-32
2.02801e-32
1.40064e-32
9.13627e-33
1.45044e-31
4.49726e-30
2.18887e-29
6.0909e-27
2.08304e-24
7.47077e-22
2.82182e-19
1.12586e-16
4.75281e-14
2.12376e-11
1.00342e-08
4.99814e-06
0.00260943
1.41242
775.977
412531
1.83715e+08
4.96496e+07
1.03994e+07
1.9484e+06
335782
53573.1
7947.85
1133.84
164.381
24.8804
3.93942
0.653548
0.113732
0.0207775
0.00398699
0.000803838
0.000170314
3.79212e-05
8.87129e-06
2.17991e-06
5.62449e-07
1.52301e-07
4.32537e-08
1.2877e-08
4.01548e-09
1.31044e-09
4.47166e-10
1.59411e-10
5.93143e-11
2.30123e-11
9.29823e-12
3.90838e-12
1.70722e-12
7.74065e-13
3.63455e-13
1.78498e-13
8.19157e-14
3.90183e-31
3.58147e-31
0
1.71492e-34
1.28647e-34
8.25663e-35
5.03002e-35
8.11988e-34
2.61124e-32
1.78898e-30
5.86653e-28
2.0563e-25
7.68664e-23
3.07701e-20
1.32315e-17
6.12641e-15
3.05991e-12
1.6509e-09
9.63146e-07
0.000608069
0.415629
307.665
246644
2.1429e+08
6.2756e+07
1.33291e+07
2.50634e+06
432561
69075.1
10254.2
1463.51
212.227
32.1257
5.08655
0.843772
0.14681
0.026814
0.00514381
0.0010367
0.000219562
4.88635e-05
1.14251e-05
2.80579e-06
7.23468e-07
1.95763e-07
5.55539e-08
1.65251e-08
5.14842e-09
1.67855e-09
5.72196e-10
2.03764e-10
7.57318e-11
2.93473e-11
1.18434e-11
4.97194e-12
2.16897e-12
9.82122e-13
4.60521e-13
2.25861e-13
1.0347e-13
3.46739e-33
3.10202e-33
0
1.35251e-36
9.18524e-37
5.3987e-37
4.50659e-37
4.36681e-35
1.07831e-32
3.09244e-30
9.5373e-28
3.15081e-25
1.11926e-22
4.2868e-20
1.77373e-17
7.94019e-15
3.84993e-12
2.02354e-09
1.15363e-06
0.000713653
0.479122
349.109
276021
2.3669e+08
7.63819e+07
1.6477e+07
3.11111e+06
537883
85992.8
12776.9
1824.77
264.738
40.0877
6.3486
1.05327
0.183273
0.0334741
0.00642115
0.00129402
0.000274018
6.09704e-05
1.42522e-05
3.49898e-06
9.01863e-07
2.43927e-07
6.91865e-08
2.05683e-08
6.40397e-09
2.08641e-09
7.10668e-10
2.52859e-10
9.38924e-11
3.63492e-11
1.46539e-11
6.14504e-12
2.67766e-12
1.21101e-12
5.67146e-13
2.77805e-13
1.27051e-13
3.72326e-35
3.20042e-35
0
1.25378e-38
7.30951e-39
5.34609e-39
3.3445e-37
7.7843e-35
1.93769e-32
5.17536e-30
1.49017e-27
4.64022e-25
1.5658e-22
5.73357e-20
2.28046e-17
9.85869e-15
4.63483e-12
2.37032e-09
1.31894e-06
0.000798572
0.526043
376.93
293661
2.48592e+08
9.0055e+07
1.97532e+07
3.74653e+06
649033
103901
15453.9
2208.92
320.676
48.5823
7.69692
1.27738
0.222328
0.0406162
0.00779258
0.00157061
0.000332624
7.40153e-05
1.73019e-05
4.24756e-06
1.09472e-06
2.96046e-07
8.39526e-08
2.49514e-08
7.76601e-09
2.52912e-09
8.61053e-10
3.06197e-10
1.13627e-10
4.39584e-11
1.77078e-11
7.41951e-12
3.23009e-12
1.45945e-12
6.82798e-13
3.34103e-13
1.52565e-13
4.94519e-37
3.97292e-37
0
1.41371e-40
8.18043e-41
3.40345e-39
6.60596e-37
1.39168e-34
3.17765e-32
7.89269e-30
2.13649e-27
6.3085e-25
2.03266e-22
7.14802e-20
2.74349e-17
1.14923e-14
5.25383e-12
2.62099e-09
1.42663e-06
0.000847046
0.548405
387.001
297489
2.48891e+08
1.03383e+08
2.30745e+07
4.39718e+06
763373
122383
18223.7
2607.25
378.783
57.421
9.10201
1.51126
0.263147
0.0480922
0.00923037
0.00186107
0.00039427
8.77609e-05
2.05212e-05
5.03925e-06
1.29906e-06
3.51376e-07
9.96578e-08
2.9622e-08
9.22005e-09
3.00258e-09
1.02215e-09
3.63425e-10
1.34832e-10
5.21462e-11
2.09981e-11
8.7941e-12
3.82648e-12
1.72787e-12
8.07833e-13
3.95e-13
1.80156e-13
8.43305e-39
5.97032e-39
0
2.36389e-42
4.25778e-41
6.66803e-39
1.16166e-36
2.22939e-34
4.71575e-32
1.09867e-29
2.81618e-27
7.93292e-25
2.45317e-22
8.32057e-20
3.09307e-17
1.25942e-14
5.61409e-12
2.73851e-09
1.4611e-06
0.000852254
0.543169
378.022
287059
2.37612e+08
1.16071e+08
2.63699e+07
5.04936e+06
878525
141056
21029.6
3011.65
437.886
66.426
10.5358
1.75029
0.30493
0.0557577
0.0107073
0.00216002
0.000457855
0.000101972
2.38576e-05
5.86188e-06
1.51198e-06
4.09193e-07
1.16117e-07
3.45318e-08
1.07533e-08
3.50339e-09
1.19309e-09
4.24338e-10
1.57473e-10
6.09141e-11
2.45319e-11
1.02746e-11
4.47061e-12
2.01854e-12
9.4357e-13
4.61268e-13
2.10241e-13
1.96329e-40
1.06787e-40
0
7.10489e-43
8.18452e-41
1.14176e-38
1.80136e-36
3.19363e-34
6.32802e-32
1.39517e-29
3.41068e-27
9.21934e-25
2.74947e-22
9.03108e-20
3.26275e-17
1.29513e-14
5.64358e-12
2.69761e-09
1.41348e-06
0.000811316
0.509748
350.314
263081
2.15656e+08
1.27922e+08
2.9582e+07
5.69161e+06
992463
159592
23822
3414.96
496.937
75.4372
11.9727
1.99021
0.346935
0.0634772
0.0121975
0.0024623
0.000522305
0.000116414
2.72585e-05
6.70312e-06
1.73048e-06
4.68746e-07
1.33139e-07
3.96302e-08
1.23523e-08
4.02802e-09
1.37298e-09
4.88742e-10
1.81524e-10
7.0273e-11
2.83219e-11
1.18701e-11
5.16806e-12
2.33476e-12
1.09192e-12
5.34024e-13
2.43439e-13
7.10269e-42
1.94368e-42
0
1.26167e-42
1.34373e-40
1.69202e-38
2.46331e-36
4.08915e-34
7.66577e-32
1.61154e-29
3.77943e-27
9.84914e-25
2.8434e-22
9.07267e-20
3.19376e-17
1.23857e-14
5.28553e-12
2.47963e-09
1.2777e-06
0.000722524
0.447984
304.279
226162
1.83722e+08
1.39053e+08
3.27344e+07
6.32836e+06
1.10595e+06
178115
26619.3
3819.8
556.306
84.5097
13.4212
2.23235
0.389385
0.0712896
0.013708
0.00276928
0.000587895
0.000131148
3.07378e-05
7.56645e-06
1.95549e-06
5.30309e-07
1.50807e-07
4.49458e-08
1.40273e-08
4.58029e-09
1.56331e-09
5.57249e-10
2.07247e-10
8.03387e-11
3.24214e-11
1.36059e-11
5.93123e-12
2.68281e-12
1.25617e-12
6.15041e-13
2.80705e-13
7.7617e-44
2.27534e-44
2.23616e-44
1.85016e-42
1.813e-40
2.12422e-38
2.90744e-36
4.57526e-34
8.18473e-32
1.65082e-29
3.73115e-27
9.40654e-25
2.63585e-22
8.1872e-20
2.81289e-17
1.0672e-14
4.46506e-12
2.05779e-09
1.04356e-06
0.000581768
0.356166
239.212
176047
1.41776e+08
1.49656e+08
3.5878e+07
6.96989e+06
1.22084e+06
196926
29467.4
4232.79
616.964
93.7902
14.9043
2.4805
0.43292
0.0793078
0.0152597
0.00308492
0.000655416
0.000146337
3.43304e-05
8.45963e-06
2.18881e-06
5.94306e-07
1.69226e-07
5.05048e-08
1.5785e-08
5.16192e-09
1.76455e-09
6.29975e-10
2.34671e-10
9.11173e-11
3.68312e-11
1.54816e-11
6.75987e-12
3.06251e-12
1.43622e-12
7.04279e-13
3.22007e-13
3.5582e-46
5.64327e-46
2.53641e-44
1.97207e-42
1.85886e-40
2.08304e-38
2.72717e-36
4.1144e-34
7.07731e-32
1.37677e-29
3.01012e-27
7.36119e-25
2.00602e-22
6.0742e-20
2.03901e-17
7.57419e-15
3.10885e-12
1.40818e-09
7.03097e-07
0.000386538
0.233721
155.254
113154
9.03525e+07
1.5968e+08
3.89963e+07
7.61297e+06
1.33657e+06
215938
32353.3
4652.09
678.644
103.238
16.4155
2.7335
0.477329
0.0874904
0.0168438
0.00340729
0.000724411
0.000161868
3.80067e-05
9.37454e-06
2.42809e-06
6.60039e-07
1.88178e-07
5.6236e-08
1.76012e-08
5.76444e-09
1.97359e-09
7.05744e-10
2.63333e-10
1.0242e-10
4.14712e-11
1.74624e-11
7.6381e-12
3.46645e-12
1.62849e-12
7.99939e-13
3.66486e-13
4.34169e-48
1.98601e-46
1.32442e-44
1.04548e-42
9.74594e-41
1.06509e-38
1.35112e-36
1.97037e-34
3.27545e-32
6.16337e-30
1.30537e-27
3.09783e-25
8.20782e-23
2.42107e-20
7.93244e-18
2.88154e-15
1.15877e-12
5.15165e-10
2.52896e-07
0.000136921
0.0816583
53.5798
38625
3.05437e+07
1.69036e+08
4.20563e+07
8.25071e+06
1.45191e+06
234949
35246.5
5073.34
740.709
112.756
17.9393
2.98878
0.522157
0.0957525
0.0184435
0.00373291
0.000794108
0.000177559
4.17223e-05
1.02996e-05
2.67018e-06
7.26595e-07
2.07386e-07
6.2052e-08
1.9447e-08
6.37783e-09
2.18681e-09
7.83195e-10
2.92699e-10
1.14029e-10
4.625e-11
1.95082e-11
8.54781e-12
3.88614e-12
1.82887e-12
8.9995e-13
4.13165e-13
2.27858e-49
1.4045e-47
9.72559e-46
7.61234e-44
6.82007e-42
7.01245e-40
8.25191e-38
1.10576e-35
1.67787e-33
2.86782e-31
5.49567e-29
1.17612e-26
2.80163e-24
7.40806e-22
2.16937e-19
7.02156e-17
2.50744e-14
9.86222e-12
4.26478e-09
2.02373e-06
0.00105138
0.596429
368.207
246293
1.77623e+08
4.50277e+07
8.87652e+06
1.56565e+06
253761
38117.1
5492.16
802.517
122.247
19.4602
3.24373
0.566947
0.10401
0.0200425
0.00405837
0.000863773
0.000193243
4.54359e-05
1.12243e-05
2.91221e-06
7.93155e-07
2.26606e-07
6.78756e-08
2.12969e-08
6.99327e-09
2.40104e-09
8.61129e-10
3.223e-10
1.25754e-10
5.10866e-11
2.15834e-11
9.47282e-12
4.31395e-12
2.03366e-12
1.00244e-12
4.61159e-13
2.34776e-50
1.61128e-48
1.23289e-46
1.05699e-44
1.02671e-42
1.13517e-40
1.42884e-38
2.04275e-36
3.30575e-34
6.03299e-32
1.23731e-29
2.84284e-27
7.29757e-25
2.08821e-22
6.6483e-20
2.35119e-17
9.22354e-15
4.00854e-12
1.92764e-09
1.02443e-06
0.000600894
0.388505
276.457
216150
1.85407e+08
4.78834e+07
9.48423e+06
1.67664e+06
272180
40935.2
5904.2
863.428
131.612
20.9624
3.49573
0.611241
0.112178
0.0216245
0.00438036
0.000932686
0.000208754
4.91082e-05
1.21385e-05
3.15149e-06
8.5896e-07
2.4561e-07
7.36355e-08
2.31274e-08
7.60269e-09
2.61335e-09
9.38453e-10
3.51708e-10
1.37419e-10
5.59064e-11
2.36551e-11
1.03981e-11
4.74277e-12
2.23938e-12
1.10563e-12
5.09622e-13
2.36531e-50
1.73306e-48
1.39954e-46
1.24901e-44
1.24547e-42
1.39664e-40
1.7661e-38
2.519e-36
4.04728e-34
7.31017e-32
1.48092e-29
3.35746e-27
8.50099e-25
2.39951e-22
7.53851e-20
2.63239e-17
1.02042e-14
4.38588e-12
2.08774e-09
1.0993e-06
0.000639457
0.410371
290.097
225505
1.9241e+08
5.05998e+07
1.00682e+07
1.7838e+06
290022
43672.2
6305.24
922.812
140.755
22.4304
3.74219
0.654585
0.120173
0.0231733
0.0046956
0.00100015
0.000223936
5.27014e-05
1.30328e-05
3.38548e-06
9.23297e-07
2.64188e-07
7.92664e-08
2.49172e-08
8.19873e-09
2.82111e-09
1.01417e-09
3.80529e-10
1.48865e-10
6.06415e-11
2.56933e-11
1.13099e-11
5.16608e-12
2.44284e-12
1.20788e-12
5.57771e-13
2.4181e-50
1.86796e-48
1.57815e-46
1.45896e-44
1.4909e-42
1.69617e-40
2.15762e-38
3.07514e-36
4.91287e-34
8.79306e-32
1.76121e-29
3.94257e-27
9.85046e-25
2.74334e-22
8.50594e-20
2.9329e-17
1.12342e-14
4.77518e-12
2.24992e-09
1.17371e-06
0.000677024
0.431225
302.812
234010
1.98644e+08
5.3157e+07
1.06233e+07
1.88615e+06
307118
46301.6
6691.3
980.074
149.582
23.8494
3.98062
0.696542
0.127916
0.0246735
0.00500095
0.00106548
0.000238637
5.61796e-05
1.38981e-05
3.6118e-06
9.85504e-07
2.82145e-07
8.47076e-08
2.66465e-08
8.77464e-09
3.02188e-09
1.08737e-09
4.08408e-10
1.59943e-10
6.52292e-11
2.76703e-11
1.21953e-11
5.57778e-12
2.64103e-12
1.30766e-12
6.0486e-13
2.43623e-50
1.96587e-48
1.72603e-46
1.64691e-44
1.72311e-42
1.991e-40
2.5536e-38
3.64729e-36
5.81143e-34
1.03367e-31
2.0524e-29
4.54714e-27
1.12337e-24
3.09236e-22
9.4774e-20
3.23117e-17
1.22442e-14
5.15226e-12
2.40504e-09
1.24398e-06
0.000712049
0.450411
314.349
241616
2.04132e+08
5.55375e+07
1.11449e+07
1.98274e+06
323303
48796.9
7058.41
1034.62
158.002
25.2043
4.20846
0.736663
0.135324
0.0261091
0.0052932
0.00112802
0.000252703
5.95067e-05
1.47255e-05
3.82811e-06
1.04493e-06
2.99291e-07
8.99007e-08
2.82964e-08
9.32397e-09
3.21337e-09
1.15719e-09
4.35005e-10
1.70518e-10
6.96107e-11
2.956e-11
1.30426e-11
5.97215e-12
2.83113e-12
1.40351e-12
6.50184e-13
2.4307e-50
2.03385e-48
1.84512e-46
1.81022e-44
1.93575e-42
2.2715e-40
2.94071e-38
4.21687e-36
6.71564e-34
1.18976e-31
2.34689e-29
5.1565e-27
1.26196e-24
3.43928e-22
1.04341e-19
3.52193e-17
1.32183e-14
5.5119e-12
2.55132e-09
1.30948e-06
0.000744301
0.46786
324.705
248347
2.08915e+08
5.77282e+07
1.16292e+07
2.0728e+06
338437
51135.5
7403.14
1085.91
165.931
26.4815
4.42344
0.774545
0.142322
0.0274657
0.00556943
0.00118712
0.000265997
6.26504e-05
1.5507e-05
4.03231e-06
1.10099e-06
3.15458e-07
9.47948e-08
2.98505e-08
9.84116e-09
3.3936e-09
1.22289e-09
4.60033e-10
1.8047e-10
7.37356e-11
3.13399e-11
1.38412e-11
6.34422e-12
3.01067e-12
1.49415e-12
6.93124e-13
2.41017e-50
2.07864e-48
1.93878e-46
1.94868e-44
2.12519e-42
2.53056e-40
3.30775e-38
4.7669e-36
7.59904e-34
1.34319e-31
2.63687e-29
5.75546e-27
1.39758e-24
3.77661e-22
1.13571e-19
3.80001e-17
1.41411e-14
5.84925e-12
2.68712e-09
1.36964e-06
0.000773602
0.483527
333.888
254235
2.13035e+08
5.97186e+07
1.20727e+07
2.15562e+06
352391
53296.6
7722.25
1133.47
173.29
27.6683
4.62338
0.809801
0.148838
0.0287296
0.00582683
0.0012422
0.000278385
6.55791e-05
1.62348e-05
4.2224e-06
1.15316e-06
3.3049e-07
9.93422e-08
3.12935e-08
1.03211e-08
3.56075e-09
1.28379e-09
4.83228e-10
1.89692e-10
7.75581e-11
3.29897e-11
1.45817e-11
6.68947e-12
3.17741e-12
1.5784e-12
7.33102e-13
2.38116e-50
2.1061e-48
2.01087e-46
2.06359e-44
2.28988e-42
2.76346e-40
3.646e-38
5.28283e-36
8.43753e-34
1.48982e-31
2.91476e-29
6.32913e-27
1.52707e-24
4.09707e-22
1.22283e-19
4.06051e-17
1.49985e-14
6.15993e-12
2.81105e-09
1.42402e-06
0.000799819
0.497397
341.924
259321
2.16542e+08
6.15005e+07
1.24728e+07
2.23058e+06
365054
55261.7
8012.88
1176.83
180.009
28.753
4.80625
0.842073
0.154806
0.0298877
0.00606277
0.0012927
0.000289743
6.8264e-05
1.69018e-05
4.39654e-06
1.20092e-06
3.44245e-07
1.035e-07
3.26119e-08
1.07593e-08
3.71325e-09
1.33933e-09
5.04365e-10
1.98092e-10
8.10395e-11
3.44923e-11
1.52563e-11
7.00406e-12
3.32943e-12
1.65528e-12
7.6963e-13
2.34852e-50
2.12115e-48
2.06524e-46
2.15706e-44
2.42978e-42
2.96747e-40
3.9491e-38
5.75291e-36
9.21028e-34
1.62591e-31
3.17354e-29
6.86353e-27
1.64744e-24
4.3938e-22
1.30307e-19
4.29891e-17
1.57776e-14
6.44011e-12
2.9219e-09
1.47225e-06
0.000822863
0.509471
348.846
263650
2.19485e+08
6.30681e+07
1.28272e+07
2.2972e+06
376332
57014.7
8272.53
1215.63
186.026
29.7251
4.97029
0.871041
0.160167
0.0309284
0.00627486
0.00133811
0.000299957
7.06784e-05
1.75016e-05
4.55306e-06
1.24382e-06
3.56594e-07
1.0723e-07
3.37938e-08
1.11517e-08
3.84973e-09
1.38899e-09
5.23253e-10
2.05594e-10
8.4147e-11
3.58331e-11
1.58582e-11
7.28481e-12
3.46513e-12
1.72394e-12
8.02292e-13
2.31579e-50
2.12777e-48
2.10536e-46
2.23148e-44
2.54572e-42
3.14126e-40
4.21264e-38
6.16783e-36
9.89967e-34
1.74816e-31
3.40682e-29
7.34569e-27
1.75591e-24
4.66037e-22
1.37484e-19
4.51103e-17
1.64667e-14
6.6863e-12
3.01863e-09
1.51402e-06
0.000842666
0.519758
354.687
267263
2.2191e+08
6.44165e+07
1.31339e+07
2.355e+06
386137
58541.3
8498.93
1249.49
191.283
30.5751
5.11381
0.896404
0.164863
0.0318406
0.00646087
0.00137794
0.00030892
7.27972e-05
1.80278e-05
4.69036e-06
1.28145e-06
3.67417e-07
1.10498e-07
3.48282e-08
1.14949e-08
3.96896e-09
1.43233e-09
5.39724e-10
2.12131e-10
8.6853e-11
3.70001e-11
1.63819e-11
7.52904e-12
3.58321e-12
1.7837e-12
8.30748e-13
2.28556e-50
2.12912e-48
2.13428e-46
2.28931e-44
2.63912e-42
3.28468e-40
4.43402e-38
6.52103e-36
1.04921e-33
1.85387e-31
3.60926e-29
7.76461e-27
1.85008e-24
4.89128e-22
1.4368e-19
4.69337e-17
1.70561e-14
6.89572e-12
3.10044e-09
1.54912e-06
0.000859195
0.528281
359.486
270203
2.2386e+08
6.55432e+07
1.33914e+07
2.40367e+06
394405
59830.3
8690.28
1278.14
195.733