/*--------------------------------*- C++ -*----------------------------------*\
| =========                 |                                                 |
| \\      /  F ield         | OpenFOAM: The Open Source CFD Toolbox           |
|  \\    /   O peration     | Version:  2406                                  |
|   \\  /    A nd           | Website:  www.openfoam.com                      |
|    \\/     M anipulation  |                                                 |
\*---------------------------------------------------------------------------*/
FoamFile
{
    version     2.0;
    format      ascii;
    arch        "LSB;label=32;scalar=64";
    class       volScalarField;
    location    "2e-07";
    object      O_1D;
}
// * * * * * * * * * * * * * * * * * * * * * * * * * * * * * * * * * * * * * //

dimensions      [0 -3 0 0 0 0 0];

internalField   nonuniform List<scalar> 
5880
(
0.00725549
0.0215151
0.034456
0.0446119
0.050877
0.052785
0.0505928
0.045159
0.0376919
0.0294647
0.0215738
0.014781
0.0094607
0.00564441
0.00313046
0.00160878
0.000763355
0.000333189
0.000133326
4.87789e-05
1.62906e-05
4.96371e-06
1.38092e-06
3.51402e-07
8.1998e-08
1.76001e-08
3.48638e-09
6.39557e-10
1.08996e-10
1.73565e-11
2.67442e-12
4.20873e-13
6.93716e-14
1.19926e-14
2.1756e-15
4.14299e-16
8.28259e-17
1.73838e-17
3.82992e-18
8.85612e-19
2.14872e-19
5.468e-20
1.45879e-20
4.07812e-21
1.1939e-21
3.65774e-22
1.17201e-22
3.92435e-23
1.37196e-23
5.00333e-24
1.9017e-24
7.52638e-25
3.0986e-25
1.3255e-25
5.88515e-26
2.70921e-26
1.29182e-26
6.36252e-27
3.27771e-27
1.5671e-27
0.342593
1.01416
1.61827
2.08396
2.36025
2.42907
2.30742
2.03981
1.68509
1.30294
0.942923
0.637984
0.402871
0.236896
0.129363
0.0653983
0.0305029
0.0130802
0.00514022
0.00184645
0.000605327
0.000181014
4.94076e-05
1.233e-05
2.8201e-06
5.92923e-07
1.14966e-07
2.06286e-08
3.43625e-09
5.34458e-10
8.0413e-11
1.23625e-11
1.99243e-12
3.3711e-13
5.99138e-14
1.1189e-14
2.19585e-15
4.52856e-16
9.81273e-17
2.23363e-17
5.33926e-18
1.33971e-18
3.52684e-19
9.73585e-20
2.81642e-20
8.53169e-21
2.70464e-21
8.96507e-22
3.10433e-22
1.1219e-22
4.2278e-23
1.65974e-23
6.78094e-24
2.87976e-24
1.26986e-24
5.80799e-25
2.75245e-25
1.34788e-25
6.90404e-26
3.28561e-26
10.3761
30.6604
48.741
62.4238
70.2182
71.7052
67.5453
59.1888
48.4528
37.113
26.5958
17.8106
11.1259
6.46811
3.49026
1.74292
0.802846
0.340017
0.132001
0.0468614
0.0151902
0.00449355
0.00121379
0.000299846
6.78921e-05
1.41298e-05
2.71132e-06
4.81262e-07
7.92668e-08
1.21831e-08
1.81053e-09
2.7492e-10
4.37714e-11
7.31795e-12
1.28557e-12
2.37395e-13
4.60862e-14
9.40586e-15
2.01783e-15
4.54937e-16
1.07759e-16
2.6804e-17
6.99796e-18
1.91661e-18
5.50307e-19
1.65522e-19
5.21201e-20
1.71665e-20
5.90849e-21
2.12318e-21
7.95815e-22
3.10838e-22
1.26389e-22
5.34344e-23
2.34629e-23
1.06887e-23
5.04646e-24
2.46272e-24
1.25695e-24
5.96826e-25
225.721
665.66
1053.91
1341.9
1498.72
1518.35
1418.33
1232.21
999.914
759.101
539.043
357.602
221.214
127.31
67.986
33.5932
15.3123
6.41908
2.46798
0.868319
0.279175
0.081978
0.021997
0.00540113
0.00121603
0.000251701
4.80343e-05
8.47795e-06
1.388e-06
2.11946e-07
3.12767e-08
4.71465e-09
7.45091e-10
1.23637e-10
2.15572e-11
3.95124e-12
7.61459e-13
1.54295e-13
3.28697e-14
7.36047e-15
1.73199e-15
4.28086e-16
1.11082e-16
3.02449e-17
8.63524e-18
2.58335e-18
8.09277e-19
2.65241e-19
9.08672e-20
3.2508e-20
1.21335e-20
4.72035e-21
1.91209e-21
8.05506e-22
3.52504e-22
1.60075e-22
7.535e-23
3.66691e-23
1.86622e-23
8.84475e-24
3764.48
11076.8
17458.6
22088.7
24483.6
24600.1
22783.8
19623.7
15786.9
11880.9
8362.62
5498.04
3369.84
1921.09
1016.08
497.245
224.52
93.2754
35.5638
12.4191
3.96692
1.15842
0.309403
0.0756781
0.0169828
0.00350503
0.000667057
0.000117404
1.91628e-05
2.916e-06
4.28605e-07
6.43272e-08
1.0119e-08
1.67092e-09
2.89874e-10
5.28581e-11
1.01337e-11
2.04277e-12
4.32937e-13
9.64558e-14
2.25841e-14
5.55486e-15
1.43459e-15
3.88813e-16
1.10518e-16
3.29217e-17
1.02709e-17
3.35302e-18
1.14435e-18
4.07918e-19
1.5173e-19
5.88351e-20
2.37585e-20
9.97915e-21
4.35482e-21
1.97233e-21
9.26075e-22
4.49622e-22
2.28279e-22
1.08017e-22
50105.7
147047
230581
289690
318487
317234
291234
248653
198310
147961
103245
67284.5
40872.3
23089.6
12100.7
5868.07
2626.25
1082
409.42
142.023
45.1111
13.1138
3.49023
0.851431
0.190695
0.0392983
0.00746977
0.00131311
0.000214033
3.25129e-05
4.76829e-06
7.13755e-07
1.1194e-07
1.84228e-08
3.18455e-09
5.78514e-10
1.10478e-10
2.2182e-11
4.68233e-12
1.03901e-12
2.42305e-13
5.93636e-14
1.52719e-14
4.12345e-15
1.16775e-15
3.46612e-16
1.07762e-16
3.50623e-17
1.1928e-17
4.23875e-18
1.572e-18
6.0784e-19
2.44794e-19
1.02556e-19
4.46454e-20
2.01735e-20
9.45127e-21
4.5793e-21
2.3201e-21
1.09622e-21
546766
1.59837e+06
2.49e+06
3.10254e+06
3.38023e+06
3.33627e+06
3.03569e+06
2.56968e+06
2.03235e+06
1.50386e+06
1.04069e+06
672504
405007
226796
117811
56632.8
25132.4
10272.6
3859.32
1330.48
420.443
121.732
32.3031
7.86417
1.75904
0.362221
0.0688175
0.0120926
0.00197007
0.000299022
4.37983e-05
6.54481e-06
1.02428e-06
1.68156e-07
2.89871e-08
5.25017e-09
9.99464e-10
2.00018e-10
4.20799e-11
9.30593e-12
2.16283e-12
5.2809e-13
1.35401e-13
3.6438e-14
1.02858e-14
3.04338e-15
9.43284e-16
3.06001e-16
1.03801e-16
3.67846e-17
1.36057e-17
5.24744e-18
2.10812e-18
8.81131e-19
3.82727e-19
1.72573e-19
8.06872e-20
3.90204e-20
1.97316e-20
9.30987e-21
4.97195e+06
1.43599e+07
2.20632e+07
2.71237e+07
2.92121e+07
2.85714e+07
2.58192e+07
2.1739e+07
1.71133e+07
1.26039e+07
8.67655e+06
5.57322e+06
3.33346e+06
1.85261e+06
954654
455159
200367
81276.7
30325.2
10392.3
3268.01
942.605
249.442
60.6154
13.5437
2.78741
0.529464
0.0930291
0.0151533
0.00229901
0.00033645
5.02106e-05
7.84473e-06
1.28521e-06
2.21026e-07
3.99285e-08
7.58001e-09
1.51254e-09
3.17253e-10
6.99454e-11
1.62061e-11
3.94472e-12
1.0083e-12
2.70519e-13
7.6134e-14
2.24606e-14
6.94161e-15
2.24559e-15
7.59684e-16
2.68512e-16
9.90666e-17
3.81156e-17
1.52772e-17
6.37122e-18
2.76153e-18
1.24266e-18
5.79892e-19
2.79928e-19
1.41292e-19
6.65715e-20
3.72626e+07
9.99013e+07
1.43107e+08
1.66988e+08
1.75123e+08
1.71017e+08
1.57164e+08
1.35861e+08
1.10023e+08
8.3075e+07
5.82717e+07
3.78755e+07
2.27779e+07
1.26631e+07
6.50355e+06
3.08347e+06
1.34834e+06
543171
201342
68600.7
21468.6
6168.85
1627.93
394.848
88.1219
18.1252
3.44191
0.604673
0.0984752
0.0149342
0.00218378
0.000325499
5.0773e-05
8.30191e-06
1.42452e-06
2.56705e-07
4.86036e-08
9.67153e-09
2.02275e-09
4.4465e-10
1.02718e-10
2.49279e-11
6.35285e-12
1.6994e-12
4.76887e-13
1.40287e-13
4.32363e-14
1.39489e-14
4.7065e-15
1.65929e-15
6.10682e-16
2.34402e-16
9.37373e-17
3.9007e-17
1.68718e-17
7.57701e-18
3.52909e-18
1.70051e-18
8.56776e-19
4.03093e-19
1.91525e+08
1.88906e+08
103309
10725.3
11204.8
10942.8
10071.1
55554.8
1.7305e+08
2.46498e+08
2.34842e+08
1.8081e+08
1.1961e+08
6.99915e+07
3.68408e+07
1.76242e+07
7.71005e+06
3.09458e+06
1.14117e+06
386762
120467
34482
9072.79
2195.92
489.391
100.569
19.0869
3.35176
0.545612
0.0826913
0.0120797
0.001798
0.000279975
4.56846e-05
7.82085e-06
1.40579e-06
2.65452e-07
5.26734e-08
1.09845e-08
2.40755e-09
5.54508e-10
1.34169e-10
3.40913e-11
9.09271e-12
2.5442e-12
7.46307e-13
2.2937e-13
7.37989e-14
2.48349e-14
8.73325e-15
3.20624e-15
1.22775e-15
4.89854e-16
2.03396e-16
8.77901e-17
3.93466e-17
1.82909e-17
8.79757e-18
4.42445e-18
2.07843e-18
13673.3
13503.7
14.1121
0.77271
0.801057
0.782379
0.720092
3.97145
12370.4
17624.6
16799.8
48476.2
2.04595e+08
2.36863e+08
1.55888e+08
8.17019e+07
3.70648e+07
1.50515e+07
5.55603e+06
1.87736e+06
582392
166067
43557.1
10516.6
2339.56
480.147
91.0354
15.9727
2.59787
0.393325
0.0573809
0.00852652
0.00132505
0.000215722
3.68375e-05
6.60374e-06
1.24345e-06
2.46017e-07
5.1151e-08
1.11771e-08
2.56647e-09
6.19093e-10
1.5683e-10
4.1704e-11
1.16346e-11
3.403e-12
1.04293e-12
3.34632e-13
1.1231e-13
3.93915e-14
1.44256e-14
5.51055e-15
2.19352e-15
9.08753e-16
3.91398e-16
1.75061e-16
8.12202e-17
3.89926e-17
1.95738e-17
9.18022e-18
1.0908
1.07865
0.00166436
6.24435e-05
6.39953e-05
6.25068e-05
5.75337e-05
0.000317247
0.988147
1.40815
1.34239
3.8736
16348.7
37002.4
1.29898e+08
2.37894e+08
1.38544e+08
6.11104e+07
2.3174e+07
7.87948e+06
2.44188e+06
694174
181494
43700.8
9700.24
1987.22
376.215
65.9206
10.7073
1.61876
0.235746
0.0349592
0.00542026
0.000880186
0.000149892
2.67932e-05
5.02993e-06
9.92113e-07
2.05633e-07
4.47921e-08
1.02527e-08
2.46543e-09
6.22609e-10
1.65055e-10
4.59086e-11
1.33881e-11
4.09125e-12
1.30903e-12
4.3814e-13
1.53267e-13
5.59849e-14
2.13334e-14
8.47182e-15
3.50179e-15
1.50491e-15
6.71695e-16
3.11011e-16
1.49028e-16
7.46696e-17
3.49612e-17
9.72259e-05
9.62654e-05
1.96451e-07
5.65858e-09
5.71216e-09
5.57959e-09
5.13595e-09
2.83146e-08
8.81908e-05
0.000125702
0.000119844
0.000345789
1.45936
3.3038
11599.3
47330.1
2.34086e+08
1.84801e+08
8.04379e+07
2.8477e+07
8.91233e+06
2.53389e+06
660833
158664
35127.7
7180.31
1356.68
237.284
38.472
5.80526
0.843642
0.124806
0.0193
0.00312528
0.000530646
9.45609e-05
1.7696e-05
3.47918e-06
7.18785e-07
1.56061e-07
3.56058e-08
8.53452e-09
2.14843e-09
5.67772e-10
1.57436e-10
4.57746e-11
1.39473e-11
4.44984e-12
1.48527e-12
5.18177e-13
1.88787e-13
7.17592e-14
2.84282e-14
1.17235e-14
5.02707e-15
2.23899e-15
1.0346e-15
4.94791e-16
2.4744e-16
1.15651e-16
9.68418e-09
9.60076e-09
2.43687e-11
5.75018e-13
5.69771e-13
5.56572e-13
5.12346e-13
2.82401e-12
8.79567e-09
1.25395e-08
1.19564e-08
3.44946e-08
0.000145575
0.000329626
1.15735
6.46155
38961
1.56477e+08
2.05325e+08
8.63039e+07
2.82402e+07
8.11003e+06
2.11527e+06
506648
111862
22806.2
4298.91
750.202
121.367
18.2723
2.64887
0.390815
0.0602627
0.00972903
0.00164674
0.000292504
5.45597e-05
1.06915e-05
2.20151e-06
4.76406e-07
1.08337e-07
2.58835e-08
6.4949e-09
1.71103e-09
4.72988e-10
1.37107e-10
4.16532e-11
1.32514e-11
4.41083e-12
1.53471e-12
5.57693e-13
2.11452e-13
8.35672e-14
3.43825e-14
1.47105e-14
6.53789e-15
3.01486e-15
1.43904e-15
7.18277e-16
3.35106e-16
1.07775e-12
1.06983e-12
3.24742e-15
6.55017e-17
6.35007e-17
6.20318e-17
5.71059e-17
3.147e-16
9.80142e-13
1.39763e-12
1.33277e-12
3.84472e-12
1.6225e-08
3.67444e-08
0.000129016
0.000856002
5.56081
29651.9
1.36785e+08
1.99311e+08
7.63979e+07
2.27733e+07
5.98283e+06
1.43197e+06
315361
64119.2
12054.6
2098.36
338.633
50.8546
7.35252
1.08169
0.166295
0.0267635
0.00451547
0.000799452
0.000148628
2.90286e-05
5.95761e-06
1.28499e-06
2.91263e-07
6.93642e-08
1.73505e-08
4.55669e-09
1.2558e-09
3.62947e-10
1.09945e-10
3.48795e-11
1.15783e-11
4.01793e-12
1.45633e-12
5.50816e-13
2.17169e-13
8.91468e-14
3.80576e-14
1.68785e-14
7.76756e-15
3.70043e-15
1.84353e-15
8.58508e-16
1.33995e-16
1.33181e-16
4.70457e-19
8.36119e-21
7.90637e-21
7.72368e-21
7.11073e-21
3.9178e-20
1.22018e-16
1.7403e-16
1.6597e-16
4.78733e-16
2.02022e-12
4.57589e-12
1.60673e-08
1.23058e-07
0.000840186
5.1734
33622.1
2.07645e+08
1.67609e+08
5.57813e+07
1.50102e+07
3.60486e+06
792616
160733
30136.8
5232.24
842.204
126.15
18.1889
2.66819
0.408964
0.0656152
0.0110355
0.00194757
0.000360914
7.02643e-05
1.43744e-05
3.09057e-06
6.98328e-07
1.65793e-07
4.13446e-08
1.08258e-08
2.97485e-09
8.57329e-10
2.58984e-10
8.19394e-11
2.71284e-11
9.39022e-12
3.39518e-12
1.28107e-12
5.03924e-13
2.064e-13
8.79259e-14
3.89151e-14
1.78736e-14
8.49884e-15
4.22629e-15
1.96452e-15
1.862e-20
1.85304e-20
7.46637e-23
1.19626e-24
1.10027e-24
1.07486e-24
9.89616e-25
5.45136e-24
1.69778e-20
2.42198e-20
2.31004e-20
6.66254e-20
2.81145e-16
6.36896e-16
2.23634e-12
1.85437e-11
1.29647e-07
0.000847473
6.10712
46768
2.4989e+08
1.17062e+08
3.34616e+07
8.13092e+06
1.78849e+06
361917
67685.9
11721.5
1882.02
281.187
40.4359
5.91527
0.904061
0.144624
0.0242511
0.00426701
0.000788355
0.000153018
3.12101e-05
6.69042e-06
1.5073e-06
3.56819e-07
8.87291e-08
2.31683e-08
6.34906e-09
1.82486e-09
5.49822e-10
1.73514e-10
5.73048e-11
1.97878e-11
7.13791e-12
2.68719e-12
1.05473e-12
4.31088e-13
1.83268e-13
8.09533e-14
3.71112e-14
1.76142e-14
8.7437e-15
4.05704e-15
2.89078e-24
2.88053e-24
1.30367e-26
1.91708e-28
1.71069e-28
1.67119e-28
1.53873e-28
8.47441e-28
2.63924e-24
3.76584e-24
3.59216e-24
1.03593e-23
4.37126e-20
9.90358e-20
3.47738e-16
2.95656e-15
2.08156e-11
1.38357e-07
0.00102333
8.19445
51749.1
2.01396e+08
6.62222e+07
1.65272e+07
3.64964e+06
737687
137666
23785.8
3810.36
567.986
81.483
11.8899
1.81246
0.28917
0.0483581
0.00848548
0.00156346
0.000302638
6.15596e-05
1.31609e-05
2.95716e-06
6.98204e-07
1.73171e-07
4.51023e-08
1.2329e-08
3.53497e-09
1.06252e-09
3.34527e-10
1.10228e-10
3.7978e-11
1.36698e-11
5.13539e-12
2.01153e-12
8.2052e-13
3.48157e-13
1.53502e-13
7.02431e-14
3.32822e-14
1.64934e-14
7.63942e-15
5.01442e-28
5.00301e-28
2.51257e-30
3.44058e-32
2.97183e-32
2.90315e-32
2.6732e-32
1.47192e-31
4.58406e-28
6.54222e-28
6.24113e-28
1.7997e-27
7.59399e-24
1.87736e-23
7.1678e-20
9.09721e-17
8.15241e-13
8.16086e-09
9.1327e-05
1.14232
15965.3
2.49387e+08
1.15846e+08
3.04501e+07
6.78731e+06
1.37233e+06
255705
44097.6
7050.67
1048.95
150.173
21.8656
3.32564
0.529365
0.0883185
0.0154607
0.00284187
0.000548789
0.000111364
2.37525e-05
5.32452e-06
1.25424e-06
3.10367e-07
8.06519e-08
2.19975e-08
6.29325e-09
1.8875e-09
5.93006e-10
1.94992e-10
6.70455e-11
2.40843e-11
9.03023e-12
3.53042e-12
1.43742e-12
6.08819e-13
2.67958e-13
1.2241e-13
5.79044e-14
2.86492e-14
1.3247e-14
9.71665e-32
9.70688e-32
5.35644e-34
6.91206e-36
5.76727e-36
5.63382e-36
5.18786e-36
2.85594e-35
8.89428e-32
1.26963e-31
1.21135e-31
3.63388e-31
1.55504e-27
5.26893e-25
3.77472e-21
3.02196e-17
2.71168e-13
2.71883e-09
3.04597e-05
0.381297
5333.28
8.33526e+07
1.77366e+08
5.1149e+07
1.15947e+07
2.3497e+06
437487
75345.3
12029.3
1786.93
255.412
37.1236
5.63599
0.895419
0.149101
0.0260495
0.00477869
0.000920955
0.000186512
3.97006e-05
8.88171e-06
2.08799e-06
5.15656e-07
1.33734e-07
3.6404e-08
1.03946e-08
3.11159e-09
9.75732e-10
3.20238e-10
1.09906e-10
3.94089e-11
1.47496e-11
5.7563e-12
2.33966e-12
9.89287e-13
4.34694e-13
1.98259e-13
9.36365e-14
4.62572e-14
2.13525e-14
2.10395e-35
2.10451e-35
1.26565e-37
1.55451e-39
1.25068e-39
1.22168e-39
1.12504e-39
6.19203e-39
1.92839e-35
2.7533e-35
2.62722e-35
8.10655e-35
3.50238e-31
1.98041e-28
1.42066e-24
1.13878e-20
1.0218e-16
1.02444e-12
1.14764e-08
0.000143654
2.00921
31399.7
2.32651e+08
7.88186e+07
1.83448e+07
3.73491e+06
695519
119697
19092.5
2833.26
404.505
58.7186
8.90217
1.41227
0.234808
0.0409596
0.00750196
0.00144345
0.000291849
6.20199e-05
1.38518e-05
3.25095e-06
8.01517e-07
2.0752e-07
5.6394e-08
1.60751e-08
4.80392e-09
1.50387e-09
4.92741e-10
1.68826e-10
6.0435e-11
2.25818e-11
8.79852e-12
3.57039e-12
1.50728e-12
6.61258e-13
3.01126e-13
1.42005e-13
7.00471e-14
3.22796e-14
5.0906e-39
5.09843e-39
3.31888e-41
3.91272e-43
3.03075e-43
2.96027e-43
2.72624e-43
1.50014e-42
4.6719e-39
6.67193e-39
6.83405e-39
2.42606e-36
1.39374e-32
8.91471e-29
6.40684e-25
5.14472e-21
4.61611e-17
4.62792e-13
5.18433e-09
6.48926e-05
0.907593
14183.4
2.47624e+08
1.12152e+08
2.71077e+07
5.55889e+06
1.03639e+06
178343
28435.9
4217.58
601.741
87.2774
13.2195
2.09503
0.347943
0.0606245
0.0110903
0.00213124
0.000430363
9.13353e-05
2.0372e-05
4.77469e-06
1.17556e-06
3.03932e-07
8.24756e-08
2.34755e-08
7.00509e-09
2.18967e-09
7.16368e-10
2.45075e-10
8.75964e-11
3.26808e-11
1.2714e-11
5.1514e-12
2.17141e-12
9.51186e-13
4.32507e-13
2.0366e-13
1.00314e-13
4.61487e-14
1.37666e-42
1.38053e-42
9.67055e-45
1.10223e-46
8.20887e-47
8.01727e-47
7.38385e-47
4.06215e-46
1.26509e-42
1.87855e-42
3.31667e-40
1.70024e-36
9.78981e-33
6.29826e-29
4.52753e-25
3.6365e-21
3.26364e-17
3.27277e-13
3.66714e-09
4.59128e-05
0.642294
10039.9
1.75379e+08
1.48363e+08
3.77235e+07
7.8118e+06
1.4595e+06
251278
40069.4
5942.63
847.66
122.895
18.6044
2.94655
0.489012
0.085137
0.0155614
0.00298778
0.000602756
0.000127796
2.84752e-05
6.66671e-06
1.63956e-06
4.23408e-07
1.1476e-07
3.26246e-08
9.72286e-09
3.03525e-09
9.91682e-10
3.388e-10
1.20929e-10
4.50531e-11
1.75023e-11
7.08135e-12
2.98061e-12
1.30376e-12
5.91963e-13
2.78341e-13
1.36901e-13
6.28722e-14
4.15847e-46
4.17546e-46
3.13162e-48
3.47224e-50
2.48357e-50
2.42534e-50
2.23384e-50
1.22864e-49
3.82643e-46
5.72152e-46
1.18053e-43
6.05661e-40
3.48736e-36
2.2436e-32
1.61284e-28
1.29544e-24
1.16263e-20
1.16589e-16
1.30639e-12
1.63562e-08
0.000228816
3.57672
62479.8
1.83702e+08
4.98372e+07
1.04464e+07
1.95751e+06
337363
53825.7
7985.38
1139.19
165.154
24.9971
3.95784
0.656595
0.114261
0.0208739
0.00400544
0.000807549
0.000171099
3.80955e-05
8.91199e-06
2.18989e-06
5.65019e-07
1.52996e-07
4.34507e-08
1.29356e-08
4.03372e-09
1.31638e-09
4.49192e-10
1.60132e-10
5.95823e-11
2.31162e-11
9.34017e-12
3.926e-12
1.71491e-12
7.7755e-13
3.65087e-13
1.79314e-13
8.22065e-14
1.40354e-49
1.41106e-49
1.12813e-51
1.22332e-53
8.39585e-54
8.19788e-54
7.5511e-54
4.18161e-53
1.30404e-49
4.6863e-48
2.07554e-44
1.06927e-40
6.15518e-37
3.95892e-33
2.84516e-29
2.28464e-25
2.04987e-21
2.05508e-17
2.30213e-13
2.88154e-09
4.03008e-05
0.629791
10998.6
2.14251e+08
6.29748e+07
1.33886e+07
2.51805e+06
434599
69401.4
10302.7
1470.43
213.227
32.2765
5.11036
0.84771
0.147493
0.0269385
0.00516763
0.00104149
0.000220574
4.90883e-05
1.14776e-05
2.81866e-06
7.26778e-07
1.96657e-07
5.58073e-08
1.66003e-08
5.17184e-09
1.68618e-09
5.74793e-10
2.04687e-10
7.60748e-11
2.94801e-11
1.1897e-11
4.99441e-12
2.17877e-12
9.86554e-13
4.62595e-13
2.26897e-13
1.03839e-13
5.29368e-53
5.3288e-53
4.5239e-55
4.81993e-57
3.17179e-57
3.09654e-57
2.95075e-57
3.4105e-55
1.25061e-51
4.95954e-48
2.2868e-44
1.17819e-40
6.78252e-37
4.36266e-33
3.1355e-29
2.51792e-25
2.2593e-21
2.26517e-17
2.53762e-13
3.17648e-09
4.44283e-05
0.694331
12126.4
2.36619e+08
7.6623e+07
1.65497e+07
3.12562e+06
540421
86399.4
12837.4
1833.4
265.986
40.2761
6.37834
1.05819
0.184127
0.0336296
0.00645091
0.0013
0.000275282
6.12512e-05
1.43177e-05
3.51503e-06
9.05994e-07
2.45042e-07
6.95025e-08
2.06621e-08
6.43313e-09
2.0959e-09
7.13898e-10
2.54007e-10
9.43183e-11
3.6514e-11
1.47202e-11
6.17286e-12
2.68977e-12
1.21649e-12
5.69707e-13
2.79083e-13
1.27506e-13
2.23032e-56
2.24797e-56
2.01954e-58
2.12265e-60
1.33856e-60
1.34143e-60
1.04455e-58
3.41345e-55
1.26085e-51
5.20354e-48
2.39949e-44
1.23633e-40
7.11767e-37
4.57853e-33
3.29085e-29
2.64285e-25
2.37155e-21
2.37786e-17
2.66403e-13
3.33493e-09
4.66475e-05
0.72906
12733.7
2.48486e+08
9.03069e+07
1.9839e+07
3.76398e+06
652097
104393
15527.1
2219.38
322.188
48.8108
7.733
1.28335
0.223364
0.040805
0.00782872
0.00157788
0.00033416
7.43563e-05
1.73815e-05
4.26706e-06
1.09974e-06
2.97401e-07
8.43362e-08
2.50653e-08
7.80141e-09
2.54064e-09
8.6497e-10
3.07588e-10
1.14143e-10
4.4158e-11
1.77882e-11
7.45316e-12
3.24473e-12
1.46606e-12
6.85887e-13
3.35643e-13
1.53112e-13
1.04988e-59
1.05952e-59
1.00421e-61
1.04489e-63
6.44324e-64
3.55042e-62
1.03234e-58
3.41305e-55
1.2608e-51
5.20377e-48
2.39978e-44
1.23656e-40
7.11955e-37
4.58007e-33
3.2922e-29
2.64412e-25
2.37287e-21
2.37936e-17
2.6659e-13
3.33751e-09
4.6687e-05
0.72973
12746.3
2.48751e+08
1.03633e+08
2.31733e+07
4.41761e+06
766977
122962
18310.1
2619.6
380.571
57.6912
9.14469
1.51833
0.264374
0.0483159
0.00927319
0.00186968
0.000396091
8.81654e-05
2.06156e-05
5.06238e-06
1.30502e-06
3.52985e-07
1.00113e-07
2.97572e-08
9.2621e-09
3.01626e-09
1.0268e-09
3.65078e-10
1.35445e-10
5.23831e-11
2.10934e-11
8.83402e-12
3.84385e-12
1.73571e-12
8.11493e-13
3.96824e-13
1.80804e-13
5.51981e-63
5.57757e-63
5.56183e-65
5.79951e-67
1.28865e-65
3.32516e-62
9.83981e-59
3.25344e-55
1.20194e-51
4.96127e-48
2.28813e-44
1.17914e-40
6.78947e-37
4.3681e-33
3.1401e-29
2.52217e-25
2.26362e-21
2.27e-17
2.54359e-13
3.18465e-09
4.45525e-05
0.696425
12165.6
2.37438e+08
1.16306e+08
2.6481e+07
5.07277e+06
882674
141724
21129.3
3025.92
439.954
66.7386
10.5852
1.75848
0.306352
0.0560171
0.010757
0.00217001
0.000459969
0.000102441
2.39673e-05
5.88879e-06
1.51891e-06
4.11065e-07
1.16648e-07
3.46894e-08
1.08023e-08
3.51935e-09
1.19852e-09
4.26268e-10
1.58188e-10
6.11909e-11
2.46433e-11
1.03213e-11
4.49091e-12
2.02771e-12
9.47849e-13
4.634e-13
2.10998e-13
3.24376e-66
3.28186e-66
3.43479e-68
5.14914e-69
1.137e-65
3.01176e-62
8.91339e-59
2.94743e-55
1.089e-51
4.49552e-48
2.07354e-44
1.06866e-40
6.15396e-37
3.95963e-33
2.84675e-29
2.28678e-25
2.05257e-21
2.05856e-17
2.30689e-13
2.8886e-09
4.04148e-05
0.631811
11038
2.15452e+08
1.2813e+08
2.97048e+07
5.71795e+06
997150
160349
23935.1
3431.16
499.285
75.7924
12.0288
1.99952
0.348553
0.0637725
0.0122541
0.00247369
0.000524716
0.00011695
2.73838e-05
6.73387e-06
1.7384e-06
4.7089e-07
1.33747e-07
3.98109e-08
1.24086e-08
4.04636e-09
1.37922e-09
4.90963e-10
1.82348e-10
7.05921e-11
2.84505e-11
1.1924e-11
5.19151e-12
2.34536e-12
1.09687e-12
5.36492e-13
2.44316e-13
1.99562e-69
2.02161e-69
2.40758e-71
4.07817e-69
9.66869e-66
2.56134e-62
7.58098e-59
2.50703e-55
9.26354e-52
3.82442e-48
1.76414e-44
9.09269e-41
5.23652e-37
3.36959e-33
2.42274e-29
1.94633e-25
1.74712e-21
1.75236e-17
1.96391e-13
2.45932e-09
3.44115e-05
0.538003
9399.89
1.83492e+08
1.39223e+08
3.28681e+07
6.35757e+06
1.11118e+06
178960
26745.8
3837.92
558.936
84.9077
13.4842
2.2428
0.391201
0.0716211
0.0137716
0.00278209
0.000590608
0.000131752
3.0879e-05
7.60113e-06
1.96444e-06
5.32732e-07
1.51495e-07
4.51506e-08
1.40912e-08
4.60111e-09
1.57042e-09
5.59778e-10
2.08187e-10
8.07029e-11
3.25683e-11
1.36675e-11
5.95811e-12
2.69497e-12
1.26186e-12
6.1788e-13
2.81714e-13
1.23567e-72
1.25412e-72
1.49375e-72
3.1397e-69
7.4448e-66
1.97238e-62
5.83831e-59
1.9309e-55
7.13535e-52
2.94606e-48
1.35909e-44
7.0056e-41
4.03491e-37
2.59661e-33
1.86713e-29
1.5001e-25
1.34669e-21
1.35084e-17
1.51406e-13
1.89616e-09
2.65338e-05
0.414877
7249.29
1.41523e+08
1.49776e+08
3.60221e+07
7.00198e+06
1.22661e+06
197861
29607.5
4252.88
619.881
94.2321
14.9743
2.49211
0.434939
0.0796765
0.0153304
0.00309918
0.000658438
0.00014701
3.4488e-05
8.49838e-06
2.19881e-06
5.97018e-07
1.69997e-07
5.07346e-08
1.58567e-08
5.18534e-09
1.77255e-09
6.32829e-10
2.35734e-10
9.15297e-11
3.69978e-11
1.55517e-11
6.79044e-12
3.07637e-12
1.44271e-12
7.07523e-13
3.23161e-13
7.65116e-76
1.27046e-75
9.38014e-73
1.99108e-69
4.72208e-66
1.25127e-62
3.70449e-59
1.22541e-55
4.52916e-52
1.87036e-48
8.63e-45
4.44928e-41
2.56306e-37
1.64973e-33
1.18648e-29
9.53429e-26
8.56079e-22
8.58881e-18
9.62832e-14
1.20604e-09
1.68799e-05
0.263979
4613.46
9.00822e+07
1.59739e+08
3.91503e+07
7.64793e+06
1.34289e+06
216963
32507
4674.17
681.853
103.724
16.4926
2.7463
0.479556
0.0878972
0.0169218
0.00342305
0.00072775
0.000162612
3.81811e-05
9.41745e-06
2.43918e-06
6.63048e-07
1.89034e-07
5.64915e-08
1.7681e-08
5.79056e-09
1.98253e-09
7.08936e-10
2.64523e-10
1.02882e-10
4.16584e-11
1.75412e-11
7.67257e-12
3.4821e-12
1.63583e-12
8.03614e-13
3.67796e-13
5.70665e-79
1.65718e-76
3.13997e-73
6.66653e-70
1.58137e-66
4.19125e-63
1.24111e-59
4.10632e-56
1.51803e-52
6.27013e-49
2.89369e-45
1.49218e-41
8.59768e-38
5.53509e-34
3.98165e-30
3.20023e-26
2.87407e-22
2.88408e-18
3.23381e-14
4.05152e-10
5.67173e-06
0.0887167
1550.79
3.0287e+07
1.69023e+08
4.22195e+07
8.2885e+06
1.45876e+06
236065
35414.1
5097.43
744.213
113.288
18.0236
3.00277
0.524593
0.0961978
0.018529
0.00375016
0.000797769
0.000178375
4.19136e-05
1.03467e-05
2.68237e-06
7.29904e-07
2.08329e-07
6.23336e-08
1.95351e-08
6.40669e-09
2.1967e-09
7.8673e-10
2.94019e-10
1.14543e-10
4.64583e-11
1.9596e-11
8.58629e-12
3.90363e-12
1.83709e-12
9.04074e-13
4.14637e-13
3.79798e-82
1.47782e-79
2.80206e-76
5.94793e-73
1.41064e-69
3.73799e-66
1.10667e-62
3.6608e-59
1.35306e-55
5.58764e-52
2.57821e-48
1.32924e-44
7.65731e-41
4.92872e-37
3.54476e-33
2.84852e-29
2.5577e-25
2.56611e-21
2.87672e-17
3.60342e-13
5.04344e-09
7.88736e-05
1.37846
26916.1
1.77571e+08
4.51994e+07
8.91708e+06
1.57304e+06
254966
38298.4
5518.25
806.315
122.823
19.5516
3.25891
0.569592
0.104493
0.0201355
0.00407713
0.000867753
0.000194131
4.56442e-05
1.12756e-05
2.92549e-06
7.96765e-07
2.27635e-07
6.81833e-08
2.13933e-08
7.02487e-09
2.41187e-09
8.6501e-10
3.23752e-10
1.2632e-10
5.13163e-11
2.16803e-11
9.51536e-12
4.33332e-12
2.04277e-12
1.00702e-12
4.62796e-13
2.78709e-83
4.70937e-80
8.94341e-77
1.89757e-73
4.49836e-70
1.19147e-66
3.52592e-63
1.16583e-59
4.30709e-56
1.77788e-52
8.19973e-49
4.22561e-45
2.43316e-41
1.56543e-37
1.12537e-33
9.03927e-30
8.11279e-26
8.13582e-22
9.11654e-18
1.14144e-13
1.59688e-09
2.49622e-05
0.436066
8510.91
1.85349e+08
4.80629e+07
9.52746e+06
1.68455e+06
273472
41129.9
5932.26
867.515
132.233
21.0609
3.5121
0.614093
0.1127
0.0217248
0.00440061
0.000936984
0.000209714
4.93332e-05
1.2194e-05
3.16585e-06
8.62867e-07
2.46725e-07
7.39691e-08
2.3232e-08
7.63701e-09
2.62513e-09
9.42677e-10
3.53289e-10
1.38036e-10
5.61573e-11
2.37612e-11
1.04447e-11
4.76403e-12
2.2494e-12
1.11067e-12
5.11424e-13
2.86941e-83
4.88022e-80
9.26791e-77
1.96643e-73
4.6616e-70
1.23471e-66
3.65388e-63
1.20815e-59
4.46343e-56
1.84241e-52
8.49739e-49
4.37902e-45
2.5215e-41
1.62227e-37
1.16623e-33
9.36752e-30
8.40742e-26
8.43129e-22
9.44766e-18
1.1829e-13
1.65489e-09
2.5869e-05
0.451908
8820.12
1.92346e+08
5.07862e+07
1.01139e+07
1.79221e+06
291400
43880.1
6335.21
927.181
141.419
22.5358
3.75972
0.65764
0.120733
0.0232808
0.00471731
0.00100476
0.000224965
5.29429e-05
1.30923e-05
3.40091e-06
9.27495e-07
2.65387e-07
7.96251e-08
2.50298e-08
8.23571e-09
2.83381e-09
1.01873e-09
3.82238e-10
1.49532e-10
6.09132e-11
2.58083e-11
1.13604e-11
5.18919e-12
2.45374e-12
1.21338e-12
5.59737e-13
2.96211e-83
5.03792e-80
9.56743e-77
2.02998e-73
4.81228e-70
1.27463e-66
3.77201e-63
1.24721e-59
4.60775e-56
1.902e-52
8.77221e-49
4.52065e-45
2.60306e-41
1.67475e-37
1.20396e-33
9.67061e-30
8.67947e-26
8.70415e-22
9.75343e-18
1.22119e-13
1.70846e-09
2.67065e-05
0.466539
9105.71
1.98575e+08
5.33496e+07
1.06715e+07
1.89504e+06
308577
46521.9
6723.11
984.715
150.288
23.9615
3.99926
0.699793
0.128511
0.0247879
0.00502407
0.00107039
0.000239733
5.6437e-05
1.39616e-05
3.62826e-06
9.89983e-07
2.83425e-07
8.50908e-08
2.67668e-08
8.81418e-09
3.03547e-09
1.09225e-09
4.10239e-10
1.6066e-10
6.5521e-11
2.7794e-11
1.22498e-11
5.60268e-12
2.6528e-12
1.3136e-12
6.06986e-13
3.0437e-83
5.1767e-80
9.83101e-77
2.08592e-73
4.94489e-70
1.30976e-66
3.87597e-63
1.28159e-59
4.73478e-56
1.95444e-52
9.01409e-49
4.64532e-45
2.67485e-41
1.72095e-37
1.23717e-33
9.93742e-30
8.91896e-26
8.94434e-22
1.00226e-17
1.2549e-13
1.75562e-09
2.74438e-05
0.479421
9357.16
2.04059e+08
5.57356e+07
1.11953e+07
1.99209e+06
324839
49029.2
7091.97
1039.52
158.747
25.3228
4.22818
0.740102
0.135953
0.0262301
0.00531767
0.00113321
0.000253864
5.97794e-05
1.47928e-05
3.84555e-06
1.04968e-06
3.00648e-07
9.03072e-08
2.84241e-08
9.36595e-09
3.22781e-09
1.16238e-09
4.36954e-10
1.71281e-10
6.99217e-11
2.96919e-11
1.31007e-11
5.99877e-12
2.84372e-12
1.40987e-12
6.52464e-13
3.11482e-83
5.29766e-80
1.00608e-76
2.13467e-73
5.06047e-70
1.34037e-66
3.96658e-63
1.31155e-59
4.84549e-56
2.00014e-52
9.2249e-49
4.75397e-45
2.73742e-41
1.76121e-37
1.26612e-33
1.01699e-29
9.12765e-26
9.15365e-22
1.02572e-17
1.28427e-13
1.79671e-09
2.80863e-05
0.490644
9576.24
2.08837e+08
5.79311e+07
1.16817e+07
2.08257e+06
340045
51379
7438.34
1091.05
166.714
26.6061
4.44417
0.778162
0.142984
0.0275931
0.00559518
0.00119259
0.000267219
6.29374e-05
1.55778e-05
4.05068e-06
1.106e-06
3.16888e-07
9.52233e-08
2.99851e-08
9.88546e-09
3.40884e-09
1.22837e-09
4.62092e-10
1.81276e-10
7.40647e-11
3.14796e-11
1.39028e-11
6.37246e-12
3.02404e-12
1.50091e-12
6.95548e-13
3.17605e-83
5.40182e-80
1.02586e-76
2.17664e-73
5.15999e-70
1.36674e-66
4.04461e-63
1.33736e-59
4.94083e-56
2.0395e-52
9.40645e-49
4.84754e-45
2.79131e-41
1.79588e-37
1.29105e-33
1.03702e-29
9.30741e-26
9.33394e-22
1.04592e-17
1.30957e-13
1.83211e-09
2.86397e-05
0.500314
9764.99
2.12954e+08
5.99256e+07
1.21272e+07
2.16577e+06
354066
53550.4
7758.97
1138.84
174.108
27.7985
4.64504
0.813583
0.149531
0.0288629
0.00585377
0.00124793
0.000279665
6.58796e-05
1.6309e-05
4.24164e-06
1.1584e-06
3.31988e-07
9.97912e-08
3.14346e-08
1.03675e-08
3.57674e-09
1.28955e-09
4.8539e-10
1.90539e-10
7.7904e-11
3.31367e-11
1.46466e-11
6.71921e-12
3.1915e-12
1.58553e-12
7.35661e-13
3.22818e-83
5.4905e-80
1.0427e-76
2.21239e-73
5.24473e-70
1.38918e-66
4.11105e-63
1.35932e-59
5.022e-56
2.07301e-52
9.56101e-49
4.9272e-45
2.83718e-41
1.8254e-37
1.31227e-33
1.05407e-29
9.46044e-26
9.48742e-22
1.06312e-17
1.33111e-13
1.86225e-09
2.91108e-05
0.508545
9925.64
2.16458e+08
6.1711e+07
1.2529e+07
2.24109e+06
366789
55524.8
8050.99
1182.41
180.859
28.8882
4.82878
0.846006
0.155527
0.0300264
0.0060908
0.00129866
0.000291075
6.85768e-05
1.6979e-05
4.41657e-06
1.20637e-06
3.45805e-07
1.03968e-07
3.27589e-08
1.08077e-08
3.72992e-09
1.34533e-09
5.06621e-10
1.98976e-10
8.14007e-11
3.46458e-11
1.53241e-11
7.03517e-12
3.34417e-12
1.66275e-12
7.72311e-13
3.27192e-83
5.56489e-80
1.05683e-76
2.24237e-73
5.31581e-70
1.40801e-66
4.16678e-63
1.37775e-59
5.0901e-56
2.10112e-52
9.69068e-49
4.99403e-45
2.87567e-41
1.85016e-37
1.33007e-33
1.06837e-29
9.58883e-26
9.61619e-22
1.07755e-17
1.34918e-13
1.88753e-09
2.95061e-05
0.515451
10060.5
2.19398e+08
6.32815e+07
1.28849e+07
2.30802e+06
378120
57286.2
8311.88
1221.39
186.904
29.8649
4.99358
0.875109
0.160912
0.0310719
0.00630389
0.00134428
0.000301336
7.10023e-05
1.75815e-05
4.5738e-06
1.24947e-06
3.5821e-07
1.07715e-07
3.39462e-08
1.12019e-08
3.86701e-09
1.39521e-09
5.25592e-10
2.06512e-10
8.45219e-11
3.59925e-11
1.59286e-11
7.31713e-12
3.48047e-12
1.73171e-12
8.05083e-13
3.3079e-83
5.62611e-80
1.06846e-76
2.26704e-73
5.37432e-70
1.42351e-66
4.21265e-63
1.39292e-59
5.14615e-56
2.12426e-52
9.79744e-49
5.04905e-45
2.90736e-41
1.87055e-37
1.34473e-33
1.08015e-29
9.69456e-26
9.72224e-22
1.08944e-17
1.36406e-13
1.90836e-09
2.98317e-05
0.52114
10171.5
2.21821e+08
6.46324e+07
1.31928e+07
2.3661e+06
387972
58820.1
8539.35
1255.41
192.186
30.7189
5.13778
0.900591
0.16563
0.0319884
0.00649075
0.0013843
0.00031034
7.31308e-05
1.81102e-05
4.71173e-06
1.28727e-06
3.69082e-07
1.10997e-07
3.49852e-08
1.15466e-08
3.98677e-09
1.43874e-09
5.42136e-10
2.13077e-10
8.72397e-11
3.71646e-11
1.64546e-11
7.56243e-12
3.59905e-12
1.79174e-12
8.33633e-13
3.33687e-83
5.67538e-80
1.07782e-76
2.2869e-73
5.4214e-70
1.43598e-66
4.24957e-63
1.40513e-59