/*--------------------------------*- C++ -*----------------------------------*\
| =========                 |                                                 |
| \\      /  F ield         | OpenFOAM: The Open Source CFD Toolbox           |
|  \\    /   O peration     | Version:  2406                                  |
|   \\  /    A nd           | Website:  www.openfoam.com                      |
|    \\/     M anipulation  |                                                 |
\*---------------------------------------------------------------------------*/
FoamFile
{
    version     2.0;
    format      ascii;
    arch        "LSB;label=32;scalar=64";
    class       volScalarField;
    location    "2e-07";
    object      voltExtAmp;
}
// * * * * * * * * * * * * * * * * * * * * * * * * * * * * * * * * * * * * * //

dimensions      [1 2 -3 0 0 -1 0];

internalField   nonuniform List<scalar> 
5880
(
0.517922
0.517843
0.517673
0.517395
0.516993
0.516446
0.515734
0.514831
0.513711
0.512343
0.510694
0.508727
0.506403
0.503676
0.500501
0.496824
0.492592
0.487744
0.482219
0.475952
0.468873
0.460913
0.451999
0.442057
0.431014
0.418796
0.405328
0.390539
0.374359
0.356716
0.338078
0.319517
0.301632
0.284458
0.268013
0.252301
0.237315
0.223041
0.209461
0.196553
0.184293
0.172656
0.161615
0.151144
0.141219
0.131812
0.1229
0.114458
0.106462
0.0988907
0.0917218
0.0849356
0.0785126
0.0724331
0.0666788
0.0612337
0.0560807
0.0512043
0.0465898
0.0422238
0.519775
0.519695
0.519522
0.51924
0.518831
0.518276
0.517553
0.516636
0.515499
0.51411
0.512436
0.510441
0.508083
0.505318
0.502099
0.498374
0.494087
0.48918
0.48359
0.477253
0.4701
0.462062
0.453066
0.443041
0.431913
0.41961
0.406058
0.391187
0.374927
0.357209
0.338502
0.319883
0.301949
0.284734
0.268255
0.252514
0.237503
0.223208
0.20961
0.196686
0.184412
0.172763
0.161712
0.151232
0.141298
0.131884
0.122965
0.114517
0.106516
0.0989394
0.0917659
0.0849755
0.0785487
0.0724656
0.066708
0.0612598
0.0561039
0.0512248
0.0466078
0.0422395
0.523213
0.523131
0.522953
0.522662
0.522242
0.52167
0.520926
0.519982
0.518812
0.517384
0.515664
0.513614
0.511193
0.508355
0.505054
0.501237
0.496848
0.491829
0.486117
0.479649
0.472358
0.464174
0.455027
0.444846
0.433561
0.4211
0.407393
0.392371
0.375965
0.35811
0.339277
0.320551
0.302527
0.285238
0.268695
0.252901
0.237845
0.223512
0.20988
0.196928
0.184629
0.172958
0.161888
0.151391
0.141442
0.132014
0.123083
0.114625
0.106614
0.099028
0.0918462
0.0850481
0.0786142
0.0725247
0.066761
0.0613072
0.0561461
0.0512622
0.0466406
0.042268
0.528018
0.527933
0.527747
0.527444
0.527006
0.526411
0.525636
0.524654
0.523437
0.521952
0.520164
0.518035
0.515523
0.512581
0.509162
0.505213
0.500678
0.495499
0.489615
0.482962
0.475474
0.467084
0.457725
0.447327
0.435822
0.423142
0.40922
0.393988
0.377382
0.359337
0.340332
0.321459
0.303313
0.285921
0.269293
0.253427
0.23831
0.223924
0.210248
0.197256
0.184924
0.173223
0.162127
0.151607
0.141638
0.132192
0.123244
0.11477
0.106746
0.099148
0.0919549
0.0851465
0.0787031
0.0726047
0.0668329
0.0613715
0.0562033
0.0513128
0.046685
0.0423066
0.534011
0.533921
0.533726
0.533408
0.532946
0.532321
0.531505
0.530473
0.529194
0.527635
0.52576
0.523528
0.520897
0.51782
0.514249
0.51013
0.505407
0.500024
0.49392
0.487031
0.479295
0.470647
0.461021
0.450352
0.438574
0.425623
0.411435
0.395946
0.379094
0.360817
0.341603
0.322552
0.304258
0.286743
0.270012
0.254058
0.238867
0.224418
0.210688
0.19765
0.185277
0.173541
0.162413
0.151866
0.141872
0.132404
0.123436
0.114945
0.106904
0.0992917
0.0920852
0.0852644
0.0788095
0.0727006
0.066919
0.0614485
0.0562718
0.0513733
0.0467381
0.0423528
0.541045
0.540949
0.540741
0.540403
0.539914
0.539249
0.538384
0.53729
0.535934
0.534283
0.532299
0.52994
0.527163
0.523921
0.520163
0.515837
0.510888
0.505258
0.498888
0.491718
0.483686
0.474731
0.464791
0.453803
0.441707
0.428441
0.413946
0.398161
0.381027
0.362486
0.343034
0.323781
0.30532
0.287665
0.270817
0.254766
0.239491
0.224972
0.21118
0.19809
0.185672
0.173896
0.162733
0.152155
0.142134
0.132641
0.123652
0.11514
0.107082
0.0994523
0.0922307
0.0853961
0.0789284
0.0728077
0.0670152
0.0615345
0.0563483
0.051441
0.0467975
0.0424044
0.548995
0.548892
0.54867
0.548308
0.547784
0.547073
0.546147
0.544977
0.543529
0.541768
0.539653
0.537142
0.534191
0.530752
0.526774
0.522204
0.516988
0.511069
0.504392
0.496897
0.488526
0.479221
0.468924
0.457577
0.445124
0.431508
0.416671
0.40056
0.383117
0.364287
0.344575
0.325102
0.30646
0.288655
0.271681
0.255524
0.24016
0.225564
0.211708
0.198561
0.186094
0.174275
0.163075
0.152464
0.142414
0.132894
0.123881
0.115349
0.107271
0.0996239
0.0923861
0.0855367
0.0790554
0.0729221
0.0671179
0.0616263
0.05643
0.0515132
0.0468609
0.0424595
0.557759
0.557648
0.557408
0.557018
0.556452
0.555685
0.554688
0.553429
0.551872
0.549979
0.54771
0.545022
0.541867
0.538198
0.533964
0.529112
0.52359
0.517344
0.510317
0.502457
0.493707
0.484013
0.473323
0.461583
0.44874
0.434744
0.41954
0.403079
0.385307
0.36617
0.346184
0.32648
0.307647
0.289684
0.272578
0.256311
0.240854
0.226179
0.212255
0.199049
0.186532
0.174669
0.16343
0.152784
0.142703
0.133157
0.124119
0.115565
0.107467
0.0998015
0.092547
0.0856822
0.0791869
0.0730405
0.0672241
0.0617213
0.0565145
0.051588
0.0469265
0.0425165
0.567251
0.567131
0.56687
0.566445
0.565831
0.564999
0.563917
0.562552
0.560867
0.558821
0.556373
0.553478
0.550088
0.546155
0.541629
0.536458
0.530592
0.523977
0.516563
0.508298
0.499132
0.489016
0.4779
0.465738
0.452481
0.438081
0.422492
0.405664
0.387549
0.368093
0.347824
0.327882
0.308854
0.290729
0.273489
0.257109
0.241557
0.226802
0.212808
0.199544
0.186974
0.175067
0.163789
0.153108
0.142996
0.133422
0.12436
0.115783
0.107664
0.0999809
0.0927096
0.0858293
0.0793197
0.07316
0.0673315
0.0618173
0.0565999
0.0516634
0.0469927
0.042574
0.577399
0.577267
0.576982
0.576517
0.575846
0.574937
0.573756
0.572268
0.570434
0.568211
0.565556
0.562422
0.558764
0.554531
0.549675
0.544146
0.537895
0.530874
0.523035
0.514331
0.504717
0.494148
0.48258
0.469972
0.456281
0.441462
0.425473
0.408269
0.389802
0.370023
0.349466
0.329284
0.310059
0.291772
0.274397
0.257904
0.242257
0.227421
0.213359
0.200035
0.187415
0.175462
0.164145
0.15343
0.143287
0.133686
0.124599
0.115999
0.107861
0.100159
0.092871
0.0859753
0.0794514
0.0732787
0.067438
0.0619125
0.0566846
0.0517383
0.0470584
0.0426311
0.588143
0.587998
0.587684
0.587173
0.586434
0.585435
0.584139
0.582508
0.5805
0.578072
0.575179
0.571775
0.567811
0.56324
0.558015
0.552089
0.545415
0.53795
0.529651
0.520475
0.510384
0.499337
0.487296
0.474225
0.460085
0.444838
0.428441
0.410855
0.392034
0.37193
0.351087
0.330665
0.311244
0.292797
0.275289
0.258685
0.242944
0.228029
0.213899
0.200517
0.187846
0.17585
0.164494
0.153745
0.143572
0.133944
0.124833
0.116211
0.108053
0.100333
0.0930288
0.086118
0.0795803
0.0733947
0.0675421
0.0620056
0.0567674
0.0518115
0.0471225
0.0426868
0.599435
0.599275
0.598927
0.59836
0.597543
0.596439
0.595008
0.593211
0.591002
0.588339
0.585174
0.581461
0.577153
0.572204
0.566569
0.560206
0.553071
0.545127
0.536335
0.526659
0.516065
0.50452
0.491991
0.478445
0.463848
0.448165
0.43136
0.413392
0.394218
0.373792
0.352666
0.332009
0.312397
0.293792
0.276154
0.259441
0.24361
0.228617
0.214421
0.200983
0.188263
0.176224
0.164831
0.154049
0.143847
0.134193
0.125058
0.116416
0.108239
0.100502
0.0931813
0.0862559
0.0797048
0.0735068
0.0676427
0.0620955
0.0568474
0.0518822
0.0471845
0.0427407
0.611236
0.611057
0.610669
0.610039
0.609129
0.607901
0.606314
0.604323
0.601883
0.598949
0.595474
0.591412
0.586718
0.581348
0.575263
0.568422
0.56079
0.552333
0.543019
0.532819
0.521703
0.509645
0.496615
0.482587
0.46753
0.451413
0.4342
0.415854
0.396334
0.375592
0.35419
0.333304
0.313506
0.294749
0.276985
0.260168
0.244248
0.229181
0.214922
0.201429
0.188663
0.176583
0.165154
0.154341
0.144111
0.134431
0.125275
0.116612
0.108417
0.100663
0.0933272
0.0863879
0.0798239
0.0736141
0.0677389
0.0621815
0.0569239
0.0519498
0.0472438
0.0427922
0.623516
0.623316
0.62288
0.622174
0.621155
0.619783
0.618012
0.615797
0.61309
0.609846
0.606018
0.601563
0.596437
0.590604
0.584025
0.576668
0.568504
0.559504
0.549643
0.538898
0.527246
0.514664
0.501129
0.486617
0.471101
0.454553
0.436939
0.418223
0.398365
0.377317
0.355647
0.334541
0.314564
0.295661
0.277777
0.260859
0.244856
0.229718
0.215398
0.201854
0.189043
0.176924
0.165461
0.154618
0.144361
0.134658
0.12548
0.116798
0.108585
0.100816
0.0934657
0.0865131
0.0799369
0.0737158
0.0678303
0.0622631
0.0569964
0.0520139
0.0473001
0.042841
0.636254
0.636028
0.635536
0.634739
0.633592
0.63205
0.630064
0.627588
0.624573
0.620974
0.616746
0.611849
0.606246
0.599903
0.592789
0.58488
0.57615
0.566581
0.556153
0.544848
0.53265
0.51954
0.505498
0.490505
0.474537
0.457566
0.439561
0.420486
0.4003
0.378958
0.357032
0.335714
0.315567
0.296524
0.278525
0.261513
0.24543
0.230225
0.215848
0.202255
0.189401
0.177246
0.16575
0.154879
0.144597
0.134872
0.125674
0.116974
0.108745
0.10096
0.0935962
0.0866311
0.0800434
0.0738117
0.0679163
0.06234
0.0570648
0.0520743
0.047353
0.042887
0.649439
0.649181
0.648623
0.647718
0.646418
0.644674
0.642437
0.639656
0.636285
0.63228
0.627601
0.622211
0.616081
0.609182
0.601494
0.592996
0.583674
0.573514
0.562503
0.550629
0.53788
0.524241
0.509697
0.494231
0.477819
0.460437
0.442053
0.422631
0.402133
0.380508
0.358338
0.33682
0.31651
0.297336
0.279229
0.262127
0.245969
0.230701
0.21627
0.202631
0.189737
0.177547
0.166022
0.155124
0.144818
0.135072
0.125855
0.117138
0.108894
0.101095
0.0937185
0.0867417
0.0801432
0.0739015
0.0679969
0.062412
0.0571288
0.0521309
0.0474026
0.0429301
0.663064
0.662769
0.662129
0.661095
0.659613
0.65763
0.655095
0.651959
0.648177
0.64371
0.638522
0.632586
0.625878
0.61838
0.610078
0.600962
0.591024
0.580256
0.568652
0.556205
0.542906
0.528744
0.513706
0.497777
0.480935
0.463155
0.444407
0.424655
0.403857
0.381964
0.359563
0.337855
0.317394
0.298096
0.279887
0.262701
0.246472
0.231145
0.216664
0.202981
0.190051
0.177829
0.166275
0.155352
0.145025
0.135259
0.126024
0.117292
0.109033
0.101221
0.0938324
0.0868447
0.0802362
0.0739852
0.0680719
0.0624791
0.0571884
0.0521836
0.0474488
0.0429702
0.677136
0.676794
0.676057
0.674865
0.673163
0.670895
0.668009
0.664458
0.660202
0.655208
0.649451
0.642911
0.635576
0.627436
0.618487
0.608727
0.598154
0.586768
0.574567
0.561548
0.547705
0.533029
0.51751
0.501133
0.483876
0.465715
0.446619
0.426552
0.405471
0.383326
0.360707
0.338821
0.318217
0.298803
0.2805
0.263235
0.246941
0.231558
0.21703
0.203307
0.190342
0.17809
0.16651
0.155564
0.145216
0.135432
0.126181
0.117434
0.109161
0.101338
0.0939382
0.0869403
0.0803224
0.0740628
0.0681416
0.0625413
0.0572438
0.0522324
0.0474917
0.0430074
0.691671
0.691273
0.690414
0.689031
0.687061
0.68445
0.681146
0.677109
0.672308
0.666719
0.660327
0.653127
0.645115
0.636295
0.62667
0.616246
0.605028
0.593019
0.580223
0.566638
0.552261
0.537086
0.521101
0.504292
0.486638
0.468115
0.448689
0.428324
0.406976
0.384593
0.36177
0.339719
0.318981
0.299459
0.281067
0.263729
0.247374
0.23194
0.217369
0.203609
0.190612
0.178332
0.166728
0.15576
0.145393
0.135592
0.126326
0.117565
0.109281
0.101446
0.0940359
0.0870287
0.0804022
0.0741346
0.068206
0.0625988
0.0572949
0.0522776
0.0475313
0.0430418
0.706699
0.70623
0.70522
0.703598
0.701301
0.698273
0.694473
0.689867
0.684439
0.678179
0.671087
0.66317
0.654438
0.644905
0.634581
0.62348
0.611612
0.598983
0.585598
0.57146
0.556565
0.540906
0.524474
0.507252
0.489221
0.470353
0.450616
0.429971
0.408373
0.385769
0.362755
0.340549
0.319688
0.300066
0.281592
0.264186
0.247774
0.232293
0.217682
0.203887
0.19086
0.178555
0.166928
0.155941
0.145557
0.13574
0.12646
0.117687
0.10939
0.101545
0.094126
0.0871101
0.0804756
0.0742007
0.0682652
0.0626518
0.057342
0.0523192
0.0475677
0.0430735
0.722261
0.721702
0.720499
0.718578
0.715874
0.712341
0.707947
0.702677
0.696532
0.689522
0.681664
0.672978
0.663489
0.653216
0.64218
0.630397
0.617881
0.60464
0.59068
0.576004
0.560609
0.544487
0.527627
0.510014
0.491626
0.472434
0.452405
0.431498
0.409666
0.386855
0.363665
0.341315
0.320339
0.300624
0.282075
0.264606
0.248143
0.232618
0.217969
0.204143
0.191089
0.17876
0.167112
0.156107
0.145707
0.135876
0.126583
0.117798
0.109491
0.101637
0.0942088
0.0871849
0.0805431
0.0742614
0.0683197
0.0627004
0.0573852
0.0523574
0.0476012
0.0431025
0.738421
0.737743
0.736291
0.733987
0.730774
0.72662
0.721516
0.715473
0.708516
0.700676
0.691989
0.682491
0.672214
0.661186
0.649432
0.63697
0.623815
0.609977
0.59546
0.580266
0.564391
0.547828
0.530564
0.512581
0.493857
0.474361
0.454059
0.432907
0.410858
0.387855
0.364501
0.342019
0.320937
0.301137
0.282518
0.264992
0.248481
0.232915
0.218233
0.204378
0.191299
0.178948
0.167281
0.156259
0.145844
0.136
0.126696
0.1179
0.109584
0.10172
0.0942846
0.0872534
0.0806049
0.074317
0.0683696
0.062745
0.0574248
0.0523924
0.0476319
0.0431291
0.755264
0.754427
0.752646
0.749845
0.745986
0.741068
0.735117
0.72818
0.72031
0.711564
0.701995
0.691649
0.680566
0.668778
0.65631
0.64318
0.629403
0.614986
0.599934
0.584245
0.567915
0.550935
0.533288
0.514958
0.495919
0.47614
0.455583
0.434205
0.411955
0.388775
0.36527
0.342665
0.321486
0.301607
0.282924
0.265345
0.24879
0.233188
0.218474
0.204592
0.19149
0.17912
0.167436
0.156399
0.14597
0.136114
0.126799
0.117993
0.109668
0.101797
0.0943539
0.0873161
0.0806614
0.0743679
0.0684152
0.0627857
0.057461
0.0524243
0.0476599
0.0431535
0.77292
0.771863
0.769631
0.76617
0.761483
0.755623
0.748668
0.740708
0.731829
0.722111
0.711617
0.700402
0.688507
0.675964
0.662794
0.649015
0.634638
0.619667
0.604104
0.587946
0.571186
0.553812
0.535808
0.517153
0.497821
0.477778
0.456985
0.435397
0.412961
0.389617
0.365973
0.343257
0.321988
0.302037
0.283295
0.265668
0.249073
0.233437
0.218694
0.204788
0.191665
0.179276
0.167577
0.156526
0.146085
0.136218
0.126893
0.118078
0.109746
0.101867
0.0944171
0.0873732
0.080713
0.0744142
0.0684568
0.0628229
0.057494
0.0524535
0.0476855
0.0431757
0.791572
0.790194
0.787326
0.782971
0.777216
0.770198
0.762065
0.752954
0.74298
0.732238
0.720795
0.708706
0.696006
0.682723
0.668874
0.654471
0.63952
0.624022
0.607976
0.591376
0.574212
0.55647
0.538132
0.519175
0.49957
0.479283
0.458271
0.436489
0.413882
0.390388
0.366616
0.343797
0.322446
0.302429
0.283634
0.265962
0.24933
0.233664
0.218895
0.204967
0.191825
0.179419
0.167705
0.156642
0.146189
0.136312
0.126978
0.118156
0.109816
0.101931
0.0944747
0.0874253
0.0807599
0.0744565
0.0684947
0.0628567
0.0575241
0.0524801
0.0477087
0.0431959
0.811485
0.809614
0.805812
0.800223
0.793086
0.784661
0.775172
0.764796
0.753665
0.74187
0.729474
0.716521
0.703037
0.689041
0.674543
0.659546
0.644052
0.628058
0.611558
0.594544
0.577003
0.558918
0.540268
0.521031
0.501174
0.480661
0.459449
0.437488
0.414724
0.391092
0.367203
0.34429
0.322864
0.302787
0.283942
0.266231
0.249565
0.23387
0.219078
0.20513
0.19197
0.17955
0.167822
0.156747
0.146285
0.136398
0.127056
0.118227
0.10988
0.101988
0.0945272
0.0874727
0.0808027
0.0744949
0.0685291
0.0628875
0.0575515
0.0525042
0.0477299
0.0432143
0.833085
0.830391
0.825157
0.817841
0.808935
0.798837
0.787833
0.776111
0.76379
0.750942
0.737612
0.723824
0.70959
0.694916
0.679803
0.664247
0.648244
0.631785
0.614862
0.597461
0.579569
0.561166
0.542229
0.522732
0.502642
0.481922
0.460524
0.4384
0.415492
0.391734
0.367738
0.344738
0.323244
0.303112
0.284223
0.266474
0.249778
0.234058
0.219244
0.205277
0.192102
0.179668
0.167929
0.156843
0.146371
0.136476
0.127127
0.118291
0.109938
0.102041
0.0945748
0.0875157
0.0808415
0.0745298
0.0685605
0.0629155
0.0575763
0.0525262
0.0477491
0.043231
0.857076
0.852866
0.845344
0.835619
0.824506
0.812499
0.799873
0.786773
0.773273
0.759404
0.745179
0.730599
0.715659
0.70035
0.684662
0.668585
0.652107
0.635216
0.6179
0.600141
0.581924
0.563227
0.544024
0.524288
0.503984
0.483073
0.461505
0.439232
0.416191
0.392318
0.368224
0.345146
0.32359
0.303408
0.284478
0.266696
0.249972
0.234229
0.219395
0.205412
0.192222
0.179775
0.168025
0.15693
0.14645
0.136547
0.127191
0.118349
0.109991
0.102089
0.094618
0.0875548
0.0808767
0.0745615
0.0685889
0.0629408
0.0575989
0.0525461
0.0477666
0.0432461
0.884746
0.877377
0.86612
0.853145
0.839435
0.825379
0.811114
0.796673
0.782049
0.76722
0.752161
0.736846
0.72125
0.705353
0.689133
0.672573
0.655657
0.638367
0.620686
0.602597
0.584081
0.565112
0.545665
0.525709
0.505209
0.484122
0.462399
0.439989
0.416827
0.392849
0.368666
0.345517
0.323904
0.303676
0.284709
0.266897
0.250148
0.234383
0.219532
0.205533
0.192331
0.179873
0.168113
0.157008
0.146521
0.136612
0.127249
0.118402
0.110039
0.102132
0.0946572
0.0875902
0.0809086
0.0745903
0.0686146
0.0629638
0.0576193
0.0525642
0.0477824
0.0432598
0.918713
0.903846
0.886684
0.86972
0.853261
0.837204
0.821401
0.805726
0.790076
0.774374
0.758555
0.74257
0.726375
0.709939
0.693232
0.676229
0.658909
0.641251
0.623236
0.604843
0.586051
0.566833
0.547161
0.527005
0.506324
0.485077
0.463212
0.440676
0.417405
0.393331
0.369068
0.345853
0.324188
0.30392
0.284919
0.267079
0.250308
0.234524
0.219656
0.205644
0.192429
0.179961
0.168192
0.15708
0.146585
0.13667
0.127302
0.11845
0.110082
0.102171
0.0946927
0.0876222
0.0809376
0.0746163
0.068638
0.0629847
0.0576378
0.0525805
0.0477967
0.0432723
0.965907
0.930675
0.905647
0.884717
0.865791
0.847982
0.830832
0.814065
0.7975
0.78101
0.7645
0.7479
0.731155
0.714219
0.697058
0.679642
0.661945
0.643943
0.625615
0.606937
0.587887
0.568436
0.548554
0.528209
0.507361
0.485964
0.463967
0.441315
0.417941
0.393778
0.369439
0.346164
0.324452
0.304145
0.285113
0.267248
0.250455
0.234654
0.219771
0.205746
0.19252
0.180042
0.168265
0.157146
0.146645
0.136724
0.127351
0.118494
0.110122
0.102208
0.0947255
0.0876519
0.0809643
0.0746404
0.0686596
0.063004
0.057655
0.0525956
0.04781
0.0432838
0.979685
0.946964
0.920294
0.897447
0.876908
0.857783
0.839542
0.821848
0.804481
0.787284
0.770143
0.752975
0.735713
0.718307
0.700716
0.682906
0.664849
0.646518
0.62789
0.608939
0.589641
0.569966
0.549884
0.529358
0.508348
0.486809
0.464686
0.441922
0.418451
0.394202
0.369792
0.34646
0.324702
0.304359
0.285298
0.267408
0.250595
0.234777
0.21988
0.205843
0.192607
0.18012
0.168335
0.157209
0.146701
0.136775
0.127397
0.118536
0.11016
0.102242
0.0947567
0.0876801
0.0809897
0.0746632
0.06868
0.0630223
0.0576712
0.05261
0.0478226
0.0432947
0.984859
0.956529
0.930879
0.90772
0.886449
0.866508
0.847476
0.829049
0.811008
0.793195
0.775489
0.757801
0.740061
0.722214
0.704217
0.686033
0.667632
0.648986
0.630069
0.610857
0.591321
0.571431
0.551155
0.530456
0.509292
0.487616
0.465371
0.442501
0.418937
0.394607
0.370129
0.346742
0.324941
0.304563
0.285473
0.26756
0.250728
0.234894
0.219984
0.205935
0.192689
0.180193
0.168401
0.157268
0.146755
0.136824
0.127441
0.118576
0.110196
0.102275
0.0947863
0.0877068
0.0810138
0.0746849
0.0686995
0.0630397
0.0576867
0.0526236
0.0478345
0.0433051
0.987359
0.962443
0.938456
0.91581
0.894441
0.874118
0.854586
0.835622
0.817045
0.798712
0.780513
0.762359
0.744181
0.725926
0.707548
0.689012
0.670285
0.651339
0.632148
0.612685
0.592921
0.572826
0.552365
0.531502
0.51019
0.488383
0.466023
0.443051
0.419398
0.394991
0.370448
0.347009
0.325167
0.304756
0.285639
0.267705
0.250855
0.235005
0.220082
0.206022
0.192767
0.180263
0.168464
0.157325
0.146806
0.13687
0.127483
0.118613
0.11023
0.102306
0.0948143
0.0877322
0.0810367
0.0747055
0.068718
0.0630561
0.0577013
0.0526366
0.0478459
0.0433149
0.988826
0.966359
0.943975
0.922151
0.901055
0.880665
0.860875
0.841554
0.822572
0.803818
0.785198
0.766633
0.748062
0.729432
0.710702
0.691835
0.672801
0.653572
0.634121
0.61442
0.59444
0.57415
0.553513
0.532492
0.51104
0.489109
0.466639
0.443571
0.419835
0.395354
0.37075
0.347261
0.32538
0.304938
0.285796
0.267841
0.250974
0.23511
0.220175
0.206104
0.19284
0.180329
0.168523
0.157378
0.146854
0.136913
0.127522
0.118649
0.110263
0.102335
0.0948408
0.0877561
0.0810583
0.0747249
0.0687354
0.0630717
0.0577151
0.0526488
0.0478566
0.0433242
0.989802
0.969115
0.948098
0.92715
0.906504
0.886251
0.866386
0.846856
0.827587
0.808503
0.789532
0.770613
0.751691
0.732722
0.713668
0.694495
0.675175
0.65568
0.635983
0.616057
0.595873
0.575398
0.554595
0.533425
0.511841
0.489792
0.467219
0.444061
0.420245
0.395696
0.371033
0.347498
0.32558
0.305109
0.285944
0.267969
0.251085
0.235208
0.220262
0.206182
0.192909
0.180391
0.168578
0.157428
0.146899
0.136954
0.127559
0.118683
0.110293
0.102363
0.0948657
0.0877786
0.0810786
0.0747432
0.0687517
0.0630863
0.0577281
0.0526602
0.0478666
0.0433329
0.990503
0.97115
0.951256
0.93113
0.910998
0.890995
0.87118
0.851557
0.8321
0.812767
0.793513
0.774291
0.755062
0.735789
0.71644
0.696985
0.677399
0.657656
0.63773
0.617593
0.597218
0.576569
0.55561
0.5343
0.512591
0.490433
0.467763
0.444519
0.420628
0.396015
0.371298
0.34772
0.325768
0.305269
0.286081
0.268089
0.25119
0.2353
0.220343
0.206254
0.192974
0.180448
0.16863
0.157475
0.146942
0.136992
0.127594
0.118714
0.110321
0.102388
0.0948888
0.0877995
0.0810975
0.0747602
0.068767
0.0630999
0.0577402
0.0526709
0.047876
0.043341
0.991031
0.972705
0.953729
0.934333
0.914713
0.895016
0.87533
0.855699
0.836132
0.816619
0.797139
0.777665
0.75817
0.738627
0.719012
0.6993
0.67947
0.659497
0.639357
0.619025
0.598471
0.57766
0.556555
0.535115
0.51329
0.491028
0.468268
0.444944
0.420985
0.396311
0.371544
0.347925
0.325942
0.305417
0.286209
0.2682
0.251287
0.235385
0.220418
0.206321
0.193033
0.180502
0.168678
0.157518
0.146981
0.137028
0.127626
0.118743
0.110347
0.102412
0.0949104
0.087819
0.081115
0.0747759
0.0687811
0.0631126
0.0577515
0.0526808
0.0478847
0.0433485
0.991441
0.973924
0.955698
0.936933
0.917794
0.898418
0.878905
0.859322
0.839706
0.82007
0.800416
0.780733
0.76101
0.74123
0.721378
0.701434
0.68138
0.661197
0.640862
0.620349
0.599629
0.578668
0.557428
0.535867
0.513935
0.491578
0.468734
0.445337
0.421314
0.396585
0.371771
0.348115
0.326102
0.305554
0.286327
0.268302
0.251376
0.235464
0.220488
0.206382
0.193088
0.180551
0.168723
0.157558
0.147017
0.13706
0.127655
0.118769
0.110372
0.102434
0.0949302
0.0878369
0.0811312
0.0747905
0.0687942
0.0631242
0.0577618
0.05269
0.0478927
0.0433555
0.991766
0.974896
0.957285
0.93906
0.920355
0.901291
0.881971
0.862473
0.84285
0.823136
0.80335
0.783499
0.763583
0.743597
0.723534
0.703383
0.683128
0.662754
0.64224
0.621561
0.60069
0.579591
0.558227
0.536556
0.514525
0.492081
0.46916
0.445696
0.421614
0.396834
0.371978
0.348288
0.326248
0.305679
0.286435
0.268395
0.251458
0.235535
0.220551
0.206439
0.193139
0.180596
0.168763
0.157594
0.14705
0.13709
0.127682
0.118794
0.110394
0.102454
0.0949483
0.0878532
0.0811459
0.0748037
0.0688061
0.0631348
0.0577712
0.0526983
0.0479
0.0433618
0.992027
0.97568
0.958574
0.940807
0.922483
0.903711
0.884587
0.865192
0.845592
0.825834
0.805951
0.785965
0.765888
0.745726
0.725479
0.705144
0.68471
0.664164
0.643488
0.62266
0.601651
0.580428
0.558952
0.53718
0.515059
0.492537
0.469546
0.446021
0.421886
0.39706
0.372165
0.348445
0.326381
0.305792
0.286532
0.268479
0.251531
0.2356
0.220608
0.20649
0.193184
0.180637
0.168799
0.157627
0.147079
0.137117
0.127707
0.118816
0.110414
0.102472
0.0949646
0.087868
0.0811592
0.0748157
0.0688168
0.0631444
0.0577798
0.0527059
0.0479066
0.0433675
0.992238
0.976315
0.959625
0.942241
0.924249
0.905739
0.886802
0.867518
0.847959
0.828181
0.80823
0.788137
0.767927
0.747615
0.72721
0.706714
0.686122
0.665424
0.644604
0.623642
0.602511
0.581177
0.5596
0.537737
0.515537
0.492944
0.469891
0.446312
0.422129
0.397262
0.372333
0.348584
0.326499
0.305893
0.286618
0.268555
0.251597
0.235658
0.220659
0.206535
0.193224
0.180673
0.168832
0.157657
0.147106
0.137141
0.127728
0.118835
0.110431
0.102488
0.0949792
0.0878812
0.0811711
0.0748264
0.0688264
0.063153
0.0577874
0.0527126
0.0479124
0.0433726
0.992409
0.97683
0.96048
0.943415
0.925704
0.907425
0.888659
0.869485
0.849976
0.830196
0.810196
0.790021
0.769703
0.749266
0.728726
0.708091
0.687362
0.666531
0.645586
0.624507
0.603268
0.581835
0.56017
0.538228
0.515957
0.493301
0.470194
0.446567
0.422342
0.397439
0.372479
0.348707
0.326602
0.305981
0.286695
0.268621
0.251655
0.235708
0.220704
0.206575
0.19326
0.180705
0.168861
0.157682
0.147129
0.137162
0.127747
0.118853
0.110447
0.102502
0.094992
0.0878927
0.0811815
0.0748358
0.0688348
0.0631605
0.0577941
0.0527185
0.0479176
0.0433771
0.992546
0.977243
0.961169
0.944366
0.926889
0.908807
0.890192
0.87112
0.851664
0.831891
0.811861
0.791622
0.771218
0.750678
0.730026
0.709274
0.688428
0.667484
0.646431
0.625251
0.603919
0.582402
0.56066
0.53865
0.516319
0.493609
0.470454
0.446786
0.422526
0.397592
0.372606
0.348813
0.326691
0.306057
0.28676
0.268677
0.251704
0.235752
0.220743
0.206609
0.193291
0.180732
0.168885
0.157704
0.147149
0.13718
0.127764
0.118868
0.11046
0.102514
0.0950029
0.0879026
0.0811905
0.0748439
0.068842
0.063167
0.0577998
0.0527235
0.047922
0.043381
0.992654
0.977571
0.961716
0.945122
0.927836
0.909917
0.89143
0.872448
0.853042
0.833283
0.813232
0.792947
0.772475
0.751853
0.731109
0.710261
0.689319
0.66828
0.647138
0.625874
0.604464
0.582876
0.561071
0.539004
0.516621
0.493867
0.470672
0.446969
0.422679
0.397719
0.372711
0.348901
0.326766
0.30612
0.286815
0.268725
0.251746
0.235788
0.220775
0.206638
0.193316
0.180755
0.168906
0.157723
0.147166
0.137195
0.127777
0.11888
0.110472
0.102524
0.0950121
0.0879109
0.081198
0.0748506
0.0688481
0.0631723
0.0578046
0.0527278
0.0479257
0.0433842
0.992737
0.977822
0.962136
0.945705
0.928569
0.910778
0.892396
0.873488
0.854126
0.834381
0.814319
0.794
0.773477
0.752791
0.731976
0.711052
0.690033
0.668919
0.647705
0.626373
0.604902
0.583257
0.5614
0.539287
0.516864
0.494073
0.470847
0.447116
0.422802
0.397821
0.372796
0.348971
0.326826
0.306171
0.286858
0.268763
0.251779
0.235818
0.220801
0.20666
0.193336
0.180773
0.168922
0.157738
0.147179
0.137207
0.127788
0.11889
0.110481
0.102532
0.0950195
0.0879176
0.081204
0.074856
0.0688529
0.0631767
0.0578084
0.0527311
0.0479287
0.0433868
0.992798
0.978004
0.962441
0.94613
0.929104
0.91141
0.893105
0.874255
0.854928
0.835197
0.815128
0.794786
0.774226
0.753494
0.732625
0.711645
0.690569
0.669399
0.648131
0.626749
0.605231
0.583543
0.561648
0.5395
0.517046
0.494228
0.470978
0.447227
0.422895
0.397898
0.372859
0.349024
0.32687
0.30621
0.286891
0.268791
0.251804
0.23584
0.22082
0.206678
0.193352
0.180787
0.168934
0.157749
0.147189
0.137216
0.127796
0.118897
0.110487
0.102539
0.095025
0.0879226
0.0812085
0.07486
0.0688566
0.0631799
0.0578113
0.0527337
0.047931
0.0433887
0.992837
0.978123
0.962641
0.946407
0.929454
0.911824
0.893572
0.87476
0.855458
0.835736
0.815665
0.795308
0.774724
0.753962
0.733058
0.712041
0.690927
0.66972
0.648415
0.627
0.60545
0.583734
0.561813
0.539642
0.517168
0.494332
0.471066
0.447301
0.422956
0.397949
0.372902
0.34906
0.3269
0.306235
0.286913
0.26881
0.251821
0.235854
0.220833
0.206689
0.193362
0.180796
0.168943
0.157756
0.147196
0.137222
0.127802
0.118902
0.110492
0.102543
0.0950287
0.0879259
0.0812115
0.0748627
0.068859
0.0631821
0.0578132
0.0527354
0.0479324
0.04339
0.992856
0.978182
0.962739
0.946544
0.929627
0.912029
0.893803
0.875011
0.855721
0.836005
0.815932
0.795569
0.774973
0.754196
0.733275
0.712239
0.691106
0.66988
0.648558
0.627125
0.60556
0.58383
0.561896
0.539714
0.517229
0.494384
0.47111
0.447338
0.422987
0.397974
0.372923
0.349078
0.326915
0.306248
0.286924
0.26882
0.251829
0.235861
0.22084
0.206695
0.193367
0.180801
0.168947
0.15776
0.147199
0.137225
0.127805
0.118905
0.110494
0.102545
0.0950305
0.0879276
0.081213
0.0748641
0.0688602
0.0631832
0.0578142
0.0527362
0.0479332
0.0433906
0.992856
0.978182
0.962739
0.946544
0.929627
0.912029
0.893803
0.875011
0.855721
0.836005
0.815932
0.795569
0.774973
0.754196
0.733275
0.712239
0.691106
0.66988
0.648558
0.627125
0.60556
0.58383
0.561896
0.539714
0.517229
0.494384
0.47111
0.447338
0.422987
0.397974
0.372923
0.349078
0.326915
0.306248
0.286924
0.26882
0.251829
0.235861
0.22084
0.206695
0.193367
0.180801
0.168947
0.15776
0.147199
0.137225
0.127805
0.118905
0.110494
0.102545
0.0950305
0.0879276
0.081213
0.0748641
0.0688602
0.0631832
0.0578142
0.0527362
0.0479332
0.0433906
0.992837
0.978123
0.962641
0.946407
0.929454
0.911824
0.893572
0.87476
0.855458
0.835737
0.815665
0.795308
0.774724
0.753962
0.733058
0.712041
0.690927
0.66972
0.648415
0.627
0.60545
0.583734
0.561813
0.539642
0.517168
0.494332
0.471066
0.447301
0.422956
0.397949
0.372902
0.34906
0.3269
0.306235
0.286913
0.26881
0.251821
0.235854
0.220833
0.206689
0.193362
0.180796
0.168943
0.157756
0.147196
0.137222
0.127802
0.118902
0.110492
0.102543
0.0950287
0.0879259
0.0812115
0.0748627
0.068859
0.0631821
0.0578132
0.0527354
0.0479324
0.04339
0.992798
0.978004
0.962441
0.94613
0.929104
0.91141
0.893105
0.874255
0.854928
0.835197
0.815129
0.794786
0.774226
0.753494
0.732625
0.711646
0.690569
0.669399
0.648131
0.626749
0.605231
0.583543
0.561648
0.5395
0.517046
0.494228
0.470978
0.447227
0.422895
0.397898
0.37286
0.349024
0.326871
0.30621
0.286891
0.268791
0.251804
0.23584
0.22082
0.206678
0.193352
0.180787
0.168934
0.157749
0.147189
0.137216
0.127796
0.118897
0.110487
0.102539
0.095025
0.0879226
0.0812085
0.07486
0.0688566
0.0631799
0.0578113
0.0527337
0.047931
0.0433887
0.992737
0.977822
0.962136
0.945705
0.928569
0.910778
0.892396
0.873488
0.854126
0.834381
0.814319
0.794
0.773477
0.752791
0.731976
0.711052
0.690033
0.668919
0.647705
0.626373
0.604902
0.583257
0.5614
0.539287
0.516864
0.494073
0.470847
0.447116
0.422802
0.397821
0.372796
0.348971
0.326826
0.306171
0.286859
0.268763
0.251779
0.235818
0.220801
0.20666
0.193336
0.180773
0.168922
0.157738
0.147179
0.137207
0.127788
0.11889
0.110481
0.102533
0.0950195
0.0879176
0.081204
0.074856
0.0688529
0.0631767
0.0578084
0.0527312
0.0479287
0.0433868
0.992654
0.977571
0.961716
0.945122
0.927836
0.909917
0.89143
0.872448
0.853042
0.833283
0.813232
0.792947
0.772475
0.751853
0.731109
0.710262
0.689319
0.66828
0.647138
0.625874
0.604464
0.582876
0.561071
0.539004
0.516621
0.493867
0.470672
0.446969
0.422679
0.397719
0.372711
0.348901
0.326766
0.30612
0.286815
0.268725