/*--------------------------------*- C++ -*----------------------------------*\
| =========                 |                                                 |
| \\      /  F ield         | OpenFOAM: The Open Source CFD Toolbox           |
|  \\    /   O peration     | Version:  2406                                  |
|   \\  /    A nd           | Website:  www.openfoam.com                      |
|    \\/     M anipulation  |                                                 |
\*---------------------------------------------------------------------------*/
FoamFile
{
    version     2.0;
    format      ascii;
    arch        "LSB;label=32;scalar=64";
    class       volScalarField;
    location    "2e-07";
    object      volt;
}
// * * * * * * * * * * * * * * * * * * * * * * * * * * * * * * * * * * * * * //

dimensions      [1 2 -3 0 0 -1 0];

internalField   nonuniform List<scalar> 
5880
(
517.922
517.843
517.673
517.395
516.993
516.446
515.734
514.831
513.711
512.343
510.694
508.727
506.403
503.676
500.501
496.824
492.592
487.744
482.219
475.952
468.873
460.913
451.999
442.057
431.014
418.796
405.328
390.539
374.359
356.716
338.078
319.517
301.632
284.458
268.013
252.301
237.315
223.041
209.461
196.553
184.293
172.656
161.615
151.144
141.219
131.812
122.9
114.458
106.462
98.8907
91.7218
84.9356
78.5126
72.4331
66.6788
61.2337
56.0807
51.2043
46.5898
42.2238
519.775
519.695
519.522
519.24
518.831
518.276
517.553
516.636
515.499
514.11
512.436
510.441
508.083
505.318
502.099
498.374
494.087
489.18
483.59
477.253
470.1
462.062
453.066
443.041
431.913
419.61
406.058
391.187
374.927
357.209
338.502
319.883
301.949
284.734
268.255
252.514
237.503
223.208
209.61
196.686
184.412
172.763
161.712
151.232
141.298
131.884
122.965
114.517
106.516
98.9394
91.7659
84.9755
78.5487
72.4656
66.708
61.2598
56.1039
51.2248
46.6078
42.2395
523.213
523.131
522.953
522.662
522.242
521.67
520.926
519.982
518.812
517.384
515.664
513.614
511.193
508.355
505.054
501.237
496.848
491.829
486.117
479.649
472.358
464.174
455.027
444.846
433.561
421.1
407.393
392.371
375.965
358.11
339.277
320.551
302.527
285.238
268.695
252.901
237.845
223.512
209.88
196.928
184.629
172.958
161.888
151.391
141.442
132.014
123.083
114.625
106.614
99.028
91.8462
85.0481
78.6142
72.5247
66.761
61.3072
56.1461
51.2622
46.6406
42.268
528.018
527.933
527.747
527.444
527.006
526.411
525.636
524.654
523.437
521.952
520.164
518.035
515.523
512.581
509.162
505.213
500.678
495.499
489.615
482.962
475.474
467.084
457.725
447.327
435.822
423.142
409.22
393.988
377.382
359.337
340.332
321.459
303.313
285.921
269.293
253.427
238.31
223.924
210.248
197.256
184.924
173.223
162.127
151.607
141.638
132.192
123.244
114.77
106.746
99.148
91.9549
85.1465
78.7031
72.6047
66.8329
61.3715
56.2033
51.3128
46.685
42.3066
534.011
533.921
533.726
533.408
532.946
532.321
531.505
530.473
529.194
527.635
525.76
523.528
520.897
517.82
514.249
510.13
505.407
500.024
493.92
487.031
479.295
470.647
461.021
450.352
438.574
425.623
411.435
395.946
379.094
360.817
341.603
322.552
304.258
286.743
270.012
254.058
238.867
224.418
210.688
197.65
185.277
173.541
162.413
151.866
141.872
132.404
123.436
114.945
106.904
99.2917
92.0852
85.2644
78.8095
72.7006
66.919
61.4485
56.2718
51.3733
46.7381
42.3528
541.045
540.949
540.741
540.403
539.914
539.249
538.384
537.29
535.934
534.283
532.299
529.94
527.163
523.921
520.163
515.837
510.888
505.258
498.888
491.718
483.686
474.731
464.791
453.803
441.707
428.441
413.946
398.161
381.027
362.486
343.034
323.781
305.32
287.665
270.817
254.766
239.491
224.972
211.18
198.09
185.672
173.896
162.733
152.155
142.134
132.641
123.652
115.14
107.082
99.4523
92.2307
85.3961
78.9284
72.8077
67.0152
61.5345
56.3483
51.441
46.7975
42.4044
548.995
548.892
548.67
548.308
547.784
547.073
546.147
544.977
543.529
541.768
539.653
537.142
534.191
530.752
526.774
522.204
516.988
511.069
504.392
496.897
488.526
479.221
468.924
457.577
445.124
431.508
416.671
400.56
383.117
364.287
344.575
325.102
306.46
288.655
271.681
255.524
240.16
225.564
211.708
198.561
186.094
174.275
163.075
152.464
142.414
132.894
123.881
115.349
107.271
99.6239
92.3861
85.5367
79.0554
72.9221
67.1179
61.6263
56.43
51.5132
46.8609
42.4595
557.759
557.648
557.408
557.018
556.452
555.685
554.688
553.429
551.872
549.979
547.71
545.022
541.867
538.198
533.964
529.112
523.59
517.344
510.317
502.457
493.707
484.013
473.323
461.583
448.74
434.744
419.54
403.079
385.307
366.17
346.184
326.48
307.647
289.684
272.578
256.311
240.854
226.179
212.255
199.049
186.532
174.669
163.43
152.784
142.703
133.157
124.119
115.565
107.467
99.8015
92.547
85.6822
79.1869
73.0405
67.2241
61.7213
56.5145
51.588
46.9265
42.5165
567.251
567.131
566.87
566.445
565.831
564.999
563.917
562.552
560.867
558.821
556.373
553.478
550.088
546.155
541.629
536.458
530.592
523.977
516.563
508.298
499.132
489.016
477.9
465.738
452.481
438.081
422.492
405.664
387.549
368.093
347.824
327.882
308.854
290.729
273.489
257.109
241.557
226.802
212.808
199.544
186.974
175.067
163.789
153.108
142.996
133.422
124.36
115.783
107.664
99.9809
92.7096
85.8293
79.3197
73.16
67.3315
61.8173
56.5999
51.6634
46.9927
42.574
577.399
577.267
576.982
576.517
575.846
574.937
573.756
572.268
570.434
568.211
565.556
562.422
558.764
554.531
549.675
544.146
537.895
530.874
523.035
514.331
504.717
494.148
482.58
469.972
456.281
441.462
425.473
408.269
389.802
370.023
349.466
329.284
310.059
291.772
274.397
257.904
242.257
227.421
213.359
200.035
187.415
175.462
164.145
153.43
143.287
133.686
124.599
115.999
107.861
100.159
92.871
85.9753
79.4514
73.2787
67.438
61.9125
56.6846
51.7383
47.0584
42.6311
588.143
587.998
587.684
587.173
586.434
585.435
584.139
582.508
580.5
578.072
575.179
571.775
567.811
563.24
558.015
552.089
545.415
537.95
529.651
520.475
510.384
499.337
487.296
474.225
460.085
444.838
428.441
410.855
392.034
371.93
351.087
330.665
311.244
292.797
275.289
258.685
242.944
228.029
213.899
200.517
187.846
175.85
164.494
153.745
143.572
133.944
124.833
116.211
108.053
100.333
93.0288
86.118
79.5803
73.3947
67.5421
62.0056
56.7674
51.8115
47.1225
42.6868
599.435
599.275
598.927
598.36
597.543
596.439
595.008
593.211
591.002
588.339
585.174
581.461
577.153
572.204
566.569
560.206
553.071
545.127
536.335
526.659
516.065
504.52
491.991
478.445
463.848
448.165
431.36
413.392
394.218
373.792
352.666
332.009
312.397
293.792
276.154
259.441
243.61
228.617
214.421
200.983
188.263
176.224
164.831
154.049
143.847
134.193
125.058
116.416
108.239
100.502
93.1813
86.2559
79.7048
73.5068
67.6427
62.0955
56.8474
51.8822
47.1845
42.7407
611.236
611.057
610.669
610.039
609.129
607.901
606.314
604.323
601.883
598.949
595.474
591.412
586.718
581.348
575.263
568.422
560.79
552.333
543.019
532.819
521.703
509.645
496.615
482.587
467.53
451.413
434.2
415.854
396.334
375.592
354.19
333.304
313.506
294.749
276.985
260.168
244.248
229.181
214.922
201.429
188.663
176.583
165.154
154.341
144.111
134.431
125.275
116.612
108.417
100.663
93.3272
86.3879
79.8239
73.6141
67.7389
62.1815
56.9239
51.9498
47.2438
42.7922
623.516
623.316
622.88
622.174
621.155
619.783
618.012
615.797
613.09
609.846
606.018
601.563
596.437
590.604
584.025
576.668
568.504
559.504
549.643
538.898
527.246
514.664
501.129
486.617
471.101
454.553
436.939
418.223
398.365
377.317
355.647
334.541
314.564
295.661
277.777
260.859
244.856
229.718
215.398
201.854
189.043
176.924
165.461
154.618
144.361
134.658
125.48
116.798
108.585
100.816
93.4657
86.5131
79.9369
73.7158
67.8303
62.2631
56.9964
52.0139
47.3001
42.841
636.254
636.028
635.536
634.739
633.592
632.05
630.064
627.588
624.573
620.974
616.746
611.849
606.246
599.903
592.789
584.88
576.15
566.581
556.153
544.848
532.65
519.54
505.498
490.505
474.537
457.566
439.561
420.486
400.3
378.958
357.032
335.714
315.567
296.524
278.525
261.513
245.43
230.225
215.848
202.255
189.401
177.246
165.75
154.879
144.597
134.872
125.674
116.974
108.745
100.96
93.5962
86.6311
80.0434
73.8117
67.9163
62.34
57.0648
52.0743
47.353
42.887
649.439
649.181
648.623
647.718
646.418
644.674
642.437
639.656
636.285
632.28
627.601
622.211
616.081
609.182
601.494
592.996
583.674
573.514
562.503
550.629
537.88
524.241
509.697
494.231
477.819
460.437
442.053
422.631
402.133
380.508
358.338
336.82
316.51
297.336
279.229
262.127
245.969
230.701
216.27
202.631
189.737
177.547
166.022
155.124
144.818
135.072
125.855
117.138
108.894
101.095
93.7185
86.7417
80.1432
73.9015
67.9969
62.412
57.1288
52.1309
47.4026
42.9301
663.064
662.769
662.129
661.095
659.613
657.63
655.095
651.959
648.177
643.71
638.522
632.586
625.878
618.38
610.078
600.962
591.024
580.256
568.652
556.205
542.906
528.744
513.706
497.777
480.935
463.155
444.407
424.655
403.857
381.964
359.563
337.855
317.394
298.096
279.887
262.701
246.472
231.145
216.664
202.981
190.051
177.829
166.275
155.352
145.025
135.259
126.024
117.292
109.033
101.221
93.8324
86.8447
80.2362
73.9852
68.0719
62.4791
57.1884
52.1836
47.4488
42.9702
677.136
676.794
676.057
674.865
673.163
670.895
668.009
664.458
660.202
655.208
649.451
642.911
635.576
627.436
618.487
608.727
598.154
586.768
574.567
561.548
547.705
533.029
517.51
501.133
483.876
465.715
446.619
426.552
405.471
383.326
360.707
338.821
318.217
298.803
280.5
263.235
246.941
231.558
217.03
203.307
190.342
178.09
166.51
155.564
145.216
135.432
126.181
117.434
109.161
101.338
93.9382
86.9403
80.3224
74.0628
68.1416
62.5413
57.2438
52.2324
47.4917
43.0074
691.671
691.273
690.414
689.031
687.061
684.45
681.146
677.109
672.308
666.719
660.327
653.127
645.115
636.295
626.67
616.246
605.028
593.019
580.223
566.638
552.261
537.086
521.101
504.292
486.638
468.115
448.689
428.324
406.976
384.593
361.77
339.719
318.981
299.459
281.067
263.729
247.374
231.94
217.369
203.609
190.612
178.332
166.728
155.76
145.393
135.592
126.326
117.565
109.281
101.446
94.0359
87.0287
80.4022
74.1346
68.206
62.5988
57.2949
52.2776
47.5313
43.0418
706.699
706.23
705.22
703.598
701.301
698.273
694.473
689.867
684.439
678.179
671.087
663.17
654.438
644.905
634.581
623.48
611.612
598.983
585.598
571.46
556.565
540.906
524.474
507.252
489.221
470.353
450.616
429.971
408.373
385.769
362.755
340.549
319.688
300.066
281.592
264.186
247.774
232.293
217.682
203.887
190.86
178.555
166.928
155.941
145.557
135.74
126.46
117.687
109.39
101.545
94.126
87.1101
80.4756
74.2007
68.2652
62.6518
57.342
52.3192
47.5677
43.0735
722.261
721.702
720.499
718.578
715.874
712.341
707.947
702.677
696.532
689.522
681.664
672.978
663.489
653.216
642.18
630.397
617.881
604.64
590.68
576.004
560.609
544.487
527.627
510.014
491.626
472.434
452.405
431.498
409.666
386.855
363.665
341.315
320.339
300.624
282.075
264.606
248.143
232.618
217.969
204.143
191.089
178.76
167.112
156.107
145.707
135.876
126.583
117.798
109.491
101.637
94.2088
87.1849
80.5431
74.2614
68.3197
62.7004
57.3852
52.3574
47.6012
43.1025
738.421
737.743
736.291
733.987
730.774
726.62
721.516
715.473
708.516
700.676
691.989
682.491
672.214
661.186
649.432
636.97
623.815
609.977
595.46
580.266
564.391
547.828
530.564
512.581
493.857
474.361
454.059
432.907
410.858
387.855
364.501
342.019
320.937
301.137
282.518
264.992
248.481
232.915
218.233
204.378
191.299
178.948
167.281
156.259
145.844
136
126.696
117.9
109.584
101.72
94.2846
87.2534
80.6049
74.317
68.3696
62.745
57.4248
52.3924
47.6319
43.1291
755.264
754.427
752.646
749.845
745.986
741.068
735.117
728.18
720.31
711.564
701.995
691.649
680.566
668.778
656.31
643.18
629.403
614.986
599.934
584.245
567.915
550.935
533.288
514.958
495.919
476.14
455.583
434.205
411.955
388.775
365.27
342.665
321.486
301.607
282.924
265.345
248.79
233.188
218.474
204.592
191.49
179.12
167.436
156.399
145.97
136.114
126.799
117.993
109.668
101.797
94.3539
87.3161
80.6614
74.3679
68.4152
62.7857
57.461
52.4243
47.6599
43.1535
772.92
771.863
769.631
766.17
761.483
755.623
748.668
740.708
731.829
722.111
711.617
700.402
688.507
675.964
662.794
649.015
634.638
619.667
604.104
587.946
571.186
553.812
535.808
517.153
497.821
477.778
456.985
435.397
412.961
389.617
365.973
343.257
321.988
302.037
283.295
265.668
249.073
233.437
218.694
204.788
191.665
179.276
167.577
156.526
146.085
136.218
126.893
118.078
109.746
101.867
94.4171
87.3732
80.713
74.4142
68.4568
62.8229
57.494
52.4535
47.6855
43.1757
791.572
790.194
787.326
782.971
777.216
770.198
762.065
752.954
742.98
732.238
720.795
708.706
696.006
682.723
668.874
654.471
639.52
624.022
607.976
591.376
574.212
556.47
538.132
519.175
499.57
479.283
458.271
436.489
413.882
390.388
366.616
343.797
322.446
302.429
283.634
265.962
249.33
233.664
218.895
204.967
191.825
179.419
167.705
156.642
146.189
136.312
126.978
118.156
109.816
101.931
94.4747
87.4253
80.7599
74.4565
68.4947
62.8567
57.5241
52.4801
47.7087
43.1959
811.485
809.614
805.812
800.223
793.086
784.661
775.172
764.796
753.665
741.87
729.474
716.521
703.037
689.041
674.543
659.546
644.052
628.058
611.558
594.544
577.003
558.918
540.268
521.031
501.174
480.661
459.449
437.488
414.724
391.092
367.203
344.29
322.864
302.787
283.942
266.231
249.565
233.87
219.078
205.13
191.97
179.55
167.822
156.747
146.285
136.398
127.056
118.227
109.88
101.988
94.5272
87.4727
80.8027
74.4949
68.5291
62.8875
57.5515
52.5042
47.7299
43.2143
833.085
830.391
825.157
817.841
808.935
798.837
787.833
776.111
763.79
750.942
737.612
723.824
709.59
694.916
679.803
664.247
648.244
631.785
614.862
597.461
579.569
561.166
542.229
522.732
502.642
481.922
460.524
438.4
415.492
391.734
367.738
344.738
323.244
303.112
284.223
266.474
249.778
234.058
219.244
205.277
192.102
179.668
167.929
156.843
146.371
136.476
127.127
118.291
109.938
102.041
94.5748
87.5157
80.8415
74.5298
68.5605
62.9155
57.5763
52.5262
47.7491
43.231
857.076
852.866
845.344
835.619
824.506
812.499
799.873
786.773
773.273
759.404
745.179
730.599
715.659
700.35
684.662
668.585
652.107
635.216
617.9
600.141
581.924
563.227
544.024
524.288
503.984
483.073
461.505
439.232
416.191
392.318
368.224
345.146
323.59
303.408
284.478
266.696
249.972
234.229
219.395
205.412
192.222
179.775
168.025
156.93
146.45
136.547
127.191
118.349
109.991
102.089
94.618
87.5548
80.8767
74.5615
68.5889
62.9408
57.5989
52.5461
47.7666
43.2461
884.746
877.377
866.12
853.145
839.435
825.379
811.114
796.673
782.049
767.22
752.161
736.846
721.25
705.353
689.133
672.573
655.657
638.367
620.686
602.597
584.081
565.112
545.665
525.709
505.209
484.122
462.399
439.989
416.827
392.849
368.666
345.517
323.904
303.676
284.709
266.897
250.148
234.383
219.532
205.533
192.331
179.873
168.113
157.008
146.521
136.612
127.249
118.402
110.039
102.132
94.6572
87.5902
80.9086
74.5903
68.6146
62.9638
57.6193
52.5642
47.7824
43.2598
918.713
903.846
886.684
869.72
853.261
837.204
821.401
805.726
790.076
774.374
758.555
742.57
726.375
709.939
693.232
676.229
658.909
641.251
623.236
604.843
586.051
566.833
547.161
527.005
506.324
485.077
463.212
440.676
417.405
393.331
369.068
345.853
324.188
303.92
284.919
267.079
250.308
234.524
219.656
205.644
192.429
179.961
168.192
157.08
146.585
136.67
127.302
118.45
110.082
102.171
94.6927
87.6222
80.9376
74.6163
68.638
62.9847
57.6378
52.5805
47.7967
43.2723
965.907
930.675
905.647
884.717
865.791
847.982
830.832
814.065
797.5
781.01
764.5
747.9
731.155
714.219
697.058
679.642
661.945
643.943
625.615
606.937
587.887
568.436
548.554
528.209
507.361
485.964
463.967
441.315
417.941
393.778
369.439
346.164
324.452
304.145
285.113
267.248
250.455
234.654
219.771
205.746
192.52
180.042
168.265
157.146
146.645
136.724
127.351
118.494
110.122
102.208
94.7255
87.6519
80.9643
74.6404
68.6596
63.004
57.655
52.5956
47.81
43.2838
979.685
946.964
920.294
897.447
876.908
857.783
839.542
821.848
804.481
787.284
770.143
752.975
735.713
718.307
700.716
682.906
664.849
646.518
627.89
608.939
589.641
569.966
549.884
529.358
508.348
486.809
464.686
441.922
418.451
394.202
369.792
346.46
324.702
304.359
285.298
267.408
250.595
234.777
219.88
205.843
192.607
180.12
168.335
157.209
146.701
136.775
127.397
118.536
110.16
102.242
94.7567
87.6801
80.9897
74.6632
68.68
63.0223
57.6712
52.61
47.8226
43.2947
984.859
956.529
930.879
907.72
886.449
866.508
847.476
829.049
811.008
793.195
775.489
757.801
740.061
722.214
704.217
686.033
667.632
648.986
630.069
610.857
591.321
571.431
551.155
530.456
509.292
487.616
465.371
442.501
418.937
394.607
370.129
346.742
324.941
304.563
285.473
267.56
250.728
234.894
219.984
205.935
192.689
180.193
168.401
157.268
146.755
136.824
127.441
118.576
110.196
102.275
94.7863
87.7068
81.0138
74.6849
68.6995
63.0397
57.6867
52.6236
47.8345
43.3051
987.359
962.443
938.456
915.81
894.441
874.118
854.586
835.622
817.045
798.712
780.513
762.359
744.181
725.926
707.548
689.012
670.285
651.339
632.148
612.685
592.921
572.826
552.365
531.502
510.19
488.383
466.023
443.051
419.398
394.991
370.448
347.009
325.167
304.756
285.639
267.705
250.855
235.005
220.082
206.022
192.767
180.263
168.464
157.325
146.806
136.87
127.483
118.613
110.23
102.306
94.8143
87.7322
81.0367
74.7055
68.718
63.0561
57.7013
52.6366
47.8459
43.3149
988.826
966.359
943.975
922.151
901.055
880.665
860.875
841.554
822.572
803.818
785.198
766.633
748.062
729.432
710.702
691.835
672.801
653.572
634.121
614.42
594.44
574.15
553.513
532.492
511.04
489.109
466.639
443.571
419.835
395.354
370.75
347.261
325.38
304.938
285.796
267.841
250.974
235.11
220.175
206.104
192.84
180.329
168.523
157.378
146.854
136.913
127.522
118.649
110.263
102.335
94.8408
87.7561
81.0583
74.7249
68.7354
63.0717
57.7151
52.6488
47.8566
43.3242
989.802
969.115
948.098
927.15
906.504
886.251
866.386
846.856
827.587
808.503
789.532
770.613
751.691
732.722
713.668
694.495
675.175
655.68
635.983
616.057
595.873
575.398
554.595
533.425
511.841
489.792
467.219
444.061
420.245
395.696
371.033
347.498
325.58
305.109
285.944
267.969
251.085
235.208
220.262
206.182
192.909
180.391
168.578
157.428
146.899
136.954
127.559
118.683
110.293
102.363
94.8657
87.7786
81.0786
74.7432
68.7517
63.0863
57.7281
52.6602
47.8666
43.3329
990.503
971.15
951.256
931.13
910.998
890.995
871.18
851.557
832.1
812.767
793.513
774.291
755.062
735.789
716.44
696.985
677.399
657.656
637.73
617.593
597.218
576.569
555.61
534.3
512.591
490.433
467.763
444.519
420.628
396.015
371.298
347.72
325.768
305.269
286.081
268.089
251.19
235.3
220.343
206.254
192.974
180.448
168.63
157.475
146.942
136.992
127.594
118.714
110.321
102.388
94.8888
87.7995
81.0975
74.7602
68.767
63.0999
57.7402
52.6709
47.876
43.341
991.031
972.705
953.729
934.333
914.713
895.016
875.33
855.699
836.132
816.619
797.139
777.665
758.17
738.627
719.012
699.3
679.47
659.497
639.357
619.025
598.471
577.66
556.555
535.115
513.29
491.028
468.268
444.944
420.985
396.311
371.544
347.925
325.942
305.417
286.209
268.2
251.287
235.385
220.418
206.321
193.033
180.502
168.678
157.518
146.981
137.028
127.626
118.743
110.347
102.412
94.9104
87.819
81.115
74.7759
68.7811
63.1126
57.7515
52.6808
47.8847
43.3485
991.441
973.924
955.698
936.933
917.794
898.418
878.905
859.322
839.706
820.07
800.416
780.733
761.01
741.23
721.378
701.434
681.38
661.197
640.862
620.349
599.629
578.668
557.428
535.867
513.935
491.578
468.734
445.337
421.314
396.585
371.771
348.115
326.102
305.554
286.327
268.302
251.376
235.464
220.488
206.382
193.088
180.551
168.723
157.558
147.017
137.06
127.655
118.769
110.372
102.434
94.9302
87.8369
81.1312
74.7905
68.7942
63.1242
57.7618
52.69
47.8927
43.3555
991.766
974.896
957.285
939.06
920.355
901.291
881.971
862.473
842.85
823.136
803.35
783.499
763.583
743.597
723.534
703.383
683.128
662.754
642.24
621.561
600.69
579.591
558.227
536.556
514.525
492.081
469.16
445.696
421.614
396.834
371.978
348.288
326.248
305.679
286.435
268.395
251.458
235.535
220.551
206.439
193.139
180.596
168.763
157.594
147.05
137.09
127.682
118.794
110.394
102.454
94.9483
87.8532
81.1459
74.8037
68.8061
63.1348
57.7712
52.6983
47.9
43.3618
992.027
975.68
958.574
940.807
922.483
903.711
884.587
865.192
845.592
825.834
805.951
785.965
765.888
745.726
725.479
705.144
684.71
664.164
643.488
622.66
601.651
580.428
558.952
537.18
515.059
492.537
469.546
446.021
421.886
397.06
372.165
348.445
326.381
305.792
286.532
268.479
251.531
235.6
220.608
206.49
193.184
180.637
168.799
157.627
147.079
137.117
127.707
118.816
110.414
102.472
94.9646
87.868
81.1592
74.8157
68.8168
63.1444
57.7798
52.7059
47.9066
43.3675
992.238
976.315
959.625
942.241
924.249
905.739
886.802
867.518
847.959
828.181
808.23
788.137
767.927
747.615
727.21
706.714
686.122
665.424
644.604
623.642
602.511
581.177
559.6
537.737
515.537
492.944
469.891
446.312
422.129
397.262
372.333
348.584
326.499
305.893
286.618
268.555
251.597
235.658
220.659
206.535
193.224
180.673
168.832
157.657
147.106
137.141
127.728
118.835
110.431
102.488
94.9792
87.8812
81.1711
74.8264
68.8264
63.153
57.7874
52.7126
47.9124
43.3726
992.409
976.83
960.48
943.415
925.704
907.425
888.659
869.485
849.976
830.196
810.196
790.021
769.703
749.266
728.726
708.091
687.362
666.531
645.586
624.507
603.268
581.835
560.17
538.228
515.957
493.301
470.194
446.567
422.342
397.439
372.479
348.707
326.602
305.981
286.695
268.621
251.655
235.708
220.704
206.575
193.26
180.705
168.861
157.682
147.129
137.162
127.747
118.853
110.447
102.502
94.992
87.8927
81.1815
74.8358
68.8348
63.1605
57.7941
52.7185
47.9176
43.3771
992.546
977.243
961.169
944.366
926.889
908.807
890.192
871.12
851.664
831.891
811.861
791.622
771.218
750.678
730.026
709.274
688.428
667.484
646.431
625.251
603.919
582.402
560.66
538.65
516.319
493.609
470.454
446.786
422.526
397.592
372.606
348.813
326.691
306.057
286.76
268.677
251.704
235.752
220.743
206.609
193.291
180.732
168.885
157.704
147.149
137.18
127.764
118.868
110.46
102.514
95.0029
87.9026
81.1905
74.8439
68.842
63.167
57.7998
52.7235
47.922
43.381
992.654
977.571
961.716
945.122
927.836
909.917
891.43
872.448
853.042
833.283
813.232
792.947
772.475
751.853
731.109
710.261
689.319
668.28
647.138
625.874
604.464
582.876
561.071
539.004
516.621
493.867
470.672
446.969
422.679
397.719
372.711
348.901
326.766
306.12
286.815
268.725
251.746
235.788
220.775
206.638
193.316
180.755
168.906
157.723
147.166
137.195
127.777
118.88
110.472
102.524
95.0121
87.9109
81.198
74.8506
68.8481
63.1723
57.8046
52.7278
47.9257
43.3842
992.737
977.822
962.136
945.705
928.569
910.778
892.396
873.488
854.126
834.381
814.319
794
773.477
752.791
731.976
711.052
690.033
668.919
647.705
626.373
604.902
583.257
561.4
539.287
516.864
494.073
470.847
447.116
422.802
397.821
372.796
348.971
326.826
306.171
286.858
268.763
251.779
235.818
220.801
206.66
193.336
180.773
168.922
157.738
147.179
137.207
127.788
118.89
110.481
102.532
95.0195
87.9176
81.204
74.856
68.8529
63.1767
57.8084
52.7311
47.9287
43.3868
992.798
978.004
962.441
946.13
929.104
911.41
893.105
874.255
854.928
835.197
815.128
794.786
774.226
753.494
732.625
711.645
690.569
669.399
648.131
626.749
605.231
583.543
561.648
539.5
517.046
494.228
470.978
447.227
422.895
397.898
372.859
349.024
326.87
306.21
286.891
268.791
251.804
235.84
220.82
206.678
193.352
180.787
168.934
157.749
147.189
137.216
127.796
118.897
110.487
102.539
95.025
87.9226
81.2085
74.86
68.8566
63.1799
57.8113
52.7337
47.931
43.3887
992.837
978.123
962.641
946.407
929.454
911.824
893.572
874.76
855.458
835.736
815.665
795.308
774.724
753.962
733.058
712.041
690.927
669.72
648.415
627
605.45
583.734
561.813
539.642
517.168
494.332
471.066
447.301
422.956
397.949
372.902
349.06
326.9
306.235
286.913
268.81
251.821
235.854
220.833
206.689
193.362
180.796
168.943
157.756
147.196
137.222
127.802
118.902
110.492
102.543
95.0287
87.9259
81.2115
74.8627
68.859
63.1821
57.8132
52.7354
47.9324
43.39
992.856
978.182
962.739
946.544
929.627
912.029
893.803
875.011
855.721
836.005
815.932
795.569
774.973
754.196
733.275
712.239
691.106
669.88
648.558
627.125
605.56
583.83
561.896
539.714
517.229
494.384
471.11
447.338
422.987
397.974
372.923
349.078
326.915
306.248
286.924
268.82
251.829
235.861
220.84
206.695
193.367
180.801
168.947
157.76
147.199
137.225
127.805
118.905
110.494
102.545
95.0305
87.9276
81.213
74.8641
68.8602
63.1832
57.8142
52.7362
47.9332
43.3906
992.856
978.182
962.739
946.544
929.627
912.029
893.803
875.011
855.721
836.005
815.932
795.569
774.973
754.196
733.275
712.239
691.106
669.88
648.558
627.125
605.56
583.83
561.896
539.714
517.229
494.384
471.11
447.338
422.987
397.974
372.923
349.078
326.915
306.248
286.924
268.82
251.829
235.861
220.84
206.695
193.367
180.801
168.947
157.76
147.199
137.225
127.805
118.905
110.494
102.545
95.0305
87.9276
81.213
74.8641
68.8602
63.1832
57.8142
52.7362
47.9332
43.3906
992.837
978.123
962.641
946.407
929.454
911.824
893.572
874.76
855.458
835.737
815.665
795.308
774.724
753.962
733.058
712.041
690.927
669.72
648.415
627
605.45
583.734
561.813
539.642
517.168
494.332
471.066
447.301
422.956
397.949
372.902
349.06
326.9
306.235
286.913
268.81
251.821
235.854
220.833
206.689
193.362
180.796
168.943
157.756
147.196
137.222
127.802
118.902
110.492
102.543
95.0287
87.9259
81.2115
74.8627
68.859
63.1821
57.8132
52.7354
47.9324
43.39
992.798
978.004
962.441
946.13
929.104
911.41
893.105
874.255
854.928
835.197
815.129
794.786
774.226
753.494
732.625
711.646
690.569
669.399
648.131
626.749
605.231
583.543
561.648
539.5
517.046
494.228
470.978
447.227
422.895
397.898
372.86
349.024
326.871
306.21
286.891
268.791
251.804
235.84
220.82
206.678
193.352
180.787
168.934
157.749
147.189
137.216
127.796
118.897
110.487
102.539
95.025
87.9226
81.2085
74.86
68.8566
63.1799
57.8113
52.7337
47.931
43.3887
992.737
977.822
962.136
945.705
928.569
910.778
892.396
873.488
854.126
834.381
814.319
794
773.477
752.791
731.976
711.052
690.033
668.919
647.705
626.373
604.902
583.257
561.4
539.287
516.864
494.073
470.847
447.116
422.802
397.821
372.796
348.971
326.826
306.171
286.859
268.763
251.779
235.818
220.801
206.66
193.336
180.773
168.922
157.738
147.179
137.207
127.788
118.89
110.481
102.533
95.0195
87.9176
81.204
74.856
68.8529
63.1767
57.8084
52.7312
47.9287
43.3868
992.654
977.571
961.716
945.122
927.836
909.917
891.43
872.448
853.042
833.283
813.232
792.947
772.475
751.853
731.109
710.262
689.319
668.28
647.138
625.874
604.464
582.876
561.071
539.004
516.621
493.867
470.672
446.969
422.679
397.719
372.711
348.901
326.766
306.12
286.815
268.725
251.746
235.788
220.775
206.638
193.316
180.755
168.906
157.723
147.166
137.195
127.777
118.88
110.472
102.524
95.0121
87.911
81.198
74.8506
68.8481
63.1724
57.8046
52.7278
47.9258
43.3842
992.546
977.243
961.169
944.366
926.889
908.807
890.192
871.12
851.664
831.891
811.861
791.623
771.218
750.678
730.026
709.274
688.428
667.484
646.431
625.251
603.919
582.402
560.66
538.65
516.319
493.609
470.454
446.786
422.526
397.591
372.606
348.813
326.692
306.057
286.76
268.677
251.704
235.752
220.743
206.609
193.291
180.732
168.885
157.704
147.149
137.18
127.764
118.868
110.46
102.514
95.003
87.9027
81.1905
74.8439
68.8421
63.167
57.7998
52.7235
47.9221
43.381
992.409
976.83
960.48
943.415
925.704
907.425
888.659
869.485
849.976
830.196
810.196
790.021
769.703
749.266
728.726
708.092
687.362
666.531
645.586
624.507
603.268
581.835
560.17
538.228
515.957
493.301
470.194
446.567
422.343
397.439
372.48
348.707
326.603
305.981
286.695
268.621
251.655
235.708
220.704
206.575
193.26
180.705
168.861
157.682
147.129
137.162
127.747
118.853
110.447
102.502
94.992
87.8927
81.1815
74.8358
68.8348
63.1605
57.7941
52.7185
47.9176
43.3771
992.238
976.315
959.625
942.241
924.249
905.739
886.802
867.519
847.959
828.182
808.23
788.137
767.927
747.615
727.21
706.714
686.122
665.424
644.604
623.642
602.511
581.177
559.6
537.737
515.537
492.943
469.891
446.311
422.129
397.262
372.333
348.584
326.499
305.892
286.619
268.555
251.597
235.658
220.659
206.535
193.224
180.673
168.832
157.657
147.106
137.141
127.728
118.836
110.431
102.488
94.9792
87.8812
81.1711
74.8264
68.8264
63.153
57.7874
52.7126
47.9125
43.3727
992.027
975.68
958.574
940.807
922.483
903.711
884.587
865.192
845.592
825.834
805.951
785.965
765.888
745.726
725.479
705.144
684.71
664.164
643.488
622.66
601.651
580.428
558.952
537.18
515.06
492.537
469.546
446.021
421.886
397.06
372.166
348.445
326.381
305.792
286.532
268.479
251.532
235.6
220.608
206.49
193.184
180.637
168.8
157.627
147.079
137.117
127.707
118.816
110.414
102.472
94.9646
87.868
81.1592
74.8158
68.8168
63.1445
57.7798
52.7059
47.9066
43.3676
991.766
974.896
957.285
939.06
920.355
901.291
881.971
862.473
842.85
823.136
803.35
783.499
763.583
743.597
723.534
703.383
683.128
662.754
642.24
621.561
600.69
579.591
558.227
536.556
514.525
492.081
469.16
445.696
421.615
396.834
371.978
348.288
326.249
305.679
286.435
268.395
251.458
235.535
220.551
206.439
193.139
180.596
168.763
157.594
147.05
137.09
127.682
118.794
110.394
102.454
94.9483
87.8533
81.1459
74.8038
68.8061
63.1349
57.7713
52.6983
47.9
43.3618
991.441
973.924
955.698
936.933
917.794
898.418
878.905
859.322
839.706
820.07
800.416
780.733
761.01
741.231
721.378
701.434
681.381
661.197
640.862
620.349
599.629
578.668
557.428
535.867
513.935
491.578
468.734
445.337
421.314
396.584
371.771
348.115
326.102
305.554
286.327
268.302
251.376
235.464
220.488
206.382
193.088
180.551
168.723
157.558
147.017
137.06
127.655
118.77
110.372
102.434
94.9302
87.8369
81.1312
74.7905
68.7942
63.1242
57.7618
52.69
47.8927
43.3555
991.031
972.705
953.729
934.333
914.714
895.016
875.33
855.699
836.132
816.62
797.139
777.665
758.17
738.627
719.012
699.3
679.47
659.497
639.358
619.025
598.471
577.66
556.555
535.115
513.29
491.028
468.268
444.944
420.985
396.311
371.544
347.925
325.942
305.417
286.209
268.2
251.287
235.385
220.418
206.321
193.033
180.502
168.678
157.518
146.981
137.028
127.626
118.743
110.347
102.412
94.9104
87.819
81.115
74.776
68.7812
63.1126
57.7515
52.6809
47.8847
43.3486
990.503
971.15
951.256
931.13
910.998
890.995
871.18
851.557
832.1
812.767
793.513
774.291
755.062
735.789
716.44
696.985
677.399
657.656
637.73
617.593
597.218
576.569
555.61
534.3
512.592
490.433
467.763
444.519
420.629
396.015
371.298
347.719
325.768
305.269
286.082
268.089
251.19