/*--------------------------------*- C++ -*----------------------------------*\
| =========                 |                                                 |
| \\      /  F ield         | OpenFOAM: The Open Source CFD Toolbox           |
|  \\    /   O peration     | Version:  2406                                  |
|   \\  /    A nd           | Website:  www.openfoam.com                      |
|    \\/     M anipulation  |                                                 |
\*---------------------------------------------------------------------------*/
FoamFile
{
    version     2.0;
    format      ascii;
    arch        "LSB;label=32;scalar=64";
    class       volScalarField;
    location    "5e-05/dielectric";
    object      voltExt;
}
// * * * * * * * * * * * * * * * * * * * * * * * * * * * * * * * * * * * * * //

dimensions      [1 2 -3 0 0 -1 0];

internalField   nonuniform List<scalar> 
3038
(
9.581776779e-12
1.56319394e-11
2.790434586e-11
4.626888386e-11
6.783862916e-11
8.92055067e-11
1.083347432e-10
1.242804502e-10
1.367334417e-10
1.458678823e-10
1.527930612e-10
1.591937893e-10
1.65699864e-10
1.720138496e-10
9.568930899e-12
1.561850299e-11
2.790329433e-11
4.63130033e-11
6.797816359e-11
8.951384113e-11
1.089176276e-10
1.252670727e-10
1.382360951e-10
1.479279289e-10
1.554086067e-10
1.624467597e-10
1.697410938e-10
1.769324015e-10
9.555478144e-12
1.560306435e-11
2.789627528e-11
4.634385582e-11
6.809331893e-11
8.97798882e-11
1.094305669e-10
1.261486542e-10
1.396026001e-10
1.498401981e-10
1.578904432e-10
1.656161452e-10
1.738159978e-10
1.820868043e-10
9.54141874e-12
1.558562127e-11
2.788327056e-11
4.636136093e-11
6.818378416e-11
9.0002493e-11
1.098696954e-10
1.269143109e-10
1.408085691e-10
1.515622757e-10
1.601789674e-10
1.686307482e-10
1.778676651e-10
1.875056756e-10
9.526753038e-12
1.556617222e-11
2.786426456e-11
4.636544668e-11
6.824928419e-11
9.018063941e-11
1.102315603e-10
1.275539283e-10
1.418296946e-10
1.530475851e-10
1.622009766e-10
1.713889913e-10
1.817881855e-10
1.931911173e-10
9.511481526e-12
1.554471638e-11
2.783924438e-11
4.635605004e-11
6.828958251e-11
9.031346778e-11
1.105132237e-10
1.280586215e-10
1.426431889e-10
1.542480207e-10
1.638713148e-10
1.737518242e-10
1.853808637e-10
1.990466548e-10
9.495604829e-12
1.552125367e-11
2.780819985e-11
4.633311725e-11
6.830448313e-11
9.040028895e-11
1.107123483e-10
1.284211656e-10
1.432294481e-10
1.551183237e-10
1.650996686e-10
1.755436674e-10
1.883083594e-10
2.046607532e-10
1.774449064e-10
1.81783504e-10
1.85210201e-10
1.878070455e-10
1.89708751e-10
1.910425833e-10
1.919085193e-10
1.92377751e-10
1.924968557e-10
1.922923575e-10
1.917740243e-10
1.90936584e-10
1.897598738e-10
1.882074044e-10
1.862231689e-10
1.837263814e-10
1.806038427e-10
1.767002152e-10
1.718086943e-10
1.65670603e-10
1.580050341e-10
1.48604482e-10
1.83107197e-10
1.878770136e-10
1.914836795e-10
1.941100818e-10
1.959749498e-10
1.972562254e-10
1.980803197e-10
1.985311714e-10
1.986613056e-10
1.985001652e-10
1.980593084e-10
1.973350103e-10
1.963087309e-10
1.949455803e-10
1.931905302e-10
1.909616927e-10
1.881395687e-10
1.845510715e-10
1.799486814e-10
1.739922538e-10
1.662629658e-10
1.563846451e-10
1.892082643e-10
1.944299626e-10
1.981443677e-10
2.007139687e-10
2.024716815e-10
2.036504593e-10
2.043995574e-10
2.048112814e-10
2.049408131e-10
2.04818464e-10
2.044565556e-10
2.038527258e-10
2.029906632e-10
2.018385745e-10
2.003450649e-10
1.984313932e-10
1.95978072e-10
1.928025018e-10
1.88623635e-10
1.830143496e-10
1.753699699e-10
1.65017102e-10
1.959257919e-10
2.015783446e-10
2.052572768e-10
2.07638627e-10
2.091971436e-10
2.102144502e-10
2.108520852e-10
2.112028806e-10
2.113198327e-10
2.112314055e-10
2.10949378e-10
2.104724609e-10
2.09787177e-10
2.088664568e-10
2.076655993e-10
2.061143037e-10
2.041019313e-10
2.014503311e-10
1.978637452e-10
1.928405108e-10
1.85547099e-10
1.747949461e-10
2.035781745e-10
2.095063973e-10
2.128827338e-10
2.148883454e-10
2.16136419e-10
2.169284335e-10
2.17417929e-10
2.176868574e-10
2.177799829e-10
2.17720823e-10
2.175191855e-10
2.171745062e-10
2.16676697e-10
2.160050075e-10
2.151245788e-10
2.139793739e-10
2.124783389e-10
2.104675643e-10
2.076714678e-10
2.035636136e-10
1.970907733e-10
1.862387988e-10
2.127967187e-10
2.184427123e-10
2.210497269e-10
2.224373535e-10
2.232558848e-10
2.237619468e-10
2.240709235e-10
2.242402971e-10
2.243003025e-10
2.242665335e-10
2.241455081e-10
2.239370521e-10
2.236349158e-10
2.232260301e-10
2.226881711e-10
2.219850324e-10
2.210561454e-10
2.197950795e-10
2.179974688e-10
2.152211275e-10
2.103646511e-10
2.003762329e-10
2.249583631e-10
2.285797336e-10
2.296985093e-10
2.302112224e-10
2.304988216e-10
2.306733436e-10
2.30779089e-10
2.308369599e-10
2.308576826e-10
2.308467278e-10
2.308063824e-10
2.307366184e-10
2.306353183e-10
2.304980167e-10
2.303170719e-10
2.300798909e-10
2.297652025e-10
2.293345904e-10
2.287101741e-10
2.277005132e-10
2.256661743e-10
2.194521753e-10
1.376335286e-10
1.255440562e-10
1.12633889e-10
9.91886365e-11
8.531590478e-11
7.095808734e-11
5.590725214e-11
3.983577575e-11
2.261899705e-11
1.444828675e-10
1.313106052e-10
1.174016729e-10
1.031674727e-10
8.877285133e-11
7.421893276e-11
5.943154853e-11
4.440484469e-11
2.962901915e-11
1.519125034e-10
1.373815797e-10
1.223038689e-10
1.072125945e-10
9.229562144e-11
7.757625701e-11
6.305474657e-11
4.887023752e-11
3.559383719e-11
1.599924368e-10
1.436785155e-10
1.272116691e-10
1.111856814e-10
9.5736723e-11
8.085181159e-11
6.653866932e-11
5.29603395e-11
4.059174273e-11
1.68765712e-10
1.500386366e-10
1.31937271e-10
1.149202981e-10
9.894472017e-11
8.389107193e-11
6.971891572e-11
5.655049571e-11
4.472996857e-11
1.781383541e-10
1.561401656e-10
1.362147241e-10
1.182245398e-10
1.017717162e-10
8.656604618e-11
7.248435682e-11
5.958361559e-11
4.809371035e-11
1.87515206e-10
1.613850994e-10
1.396923961e-10
1.208934357e-10
1.040832982e-10
8.877651075e-11
7.47617462e-11
6.203367628e-11
5.074113131e-11
7.346636068e-12
4.043178282e-12
2.798603957e-12
2.115103793e-12
1.669435086e-12
1.355201842e-12
1.124035805e-12
9.492057826e-13
8.141907513e-13
7.080858829e-13
6.233942768e-13
5.548211668e-13
4.985540509e-13
4.518059243e-13
4.125132837e-13
3.791307533e-13
3.504886191e-13
3.256925433e-13
3.040521291e-13
2.850295091e-13
2.682020337e-13
2.532350308e-13
2.398618098e-13
2.278689029e-13
2.170851726e-13
2.073738683e-13
1.986269852e-13
1.907614531e-13
1.837168934e-13
1.774548955e-13
1.719599295e-13
1.672421569e-13
1.633426591e-13
1.603420733e-13
1.583743757e-13
1.576488863e-13
1.584863528e-13
1.613815554e-13
1.671220028e-13
1.770433087e-13
1.93683697e-13
2.229186247e-13
2.834290438e-13
4.643005356e-13
1.724317005e-11
1.131606732e-11
8.174131204e-12
6.251344345e-12
4.956375585e-12
4.032786227e-12
3.349849588e-12
2.831886934e-12
2.431150287e-12
2.115797655e-12
1.863814755e-12
1.659601712e-12
1.491901487e-12
1.352472383e-12
1.235205029e-12
1.135519585e-12
1.049946531e-12
9.758310754e-13
9.111223414e-13
8.542214683e-13
8.038712701e-13
7.590756305e-13
7.190403083e-13
6.831292048e-13
6.508320454e-13
6.217408077e-13
5.955329823e-13
5.719602459e-13
5.508417487e-13
5.320618985e-13
5.15572996e-13
5.014034613e-13
4.896731296e-13
4.8061847e-13
4.746327246e-13
4.723296028e-13
4.746466184e-13
4.830212063e-13
4.997149686e-13
5.284761322e-13
5.76076015e-13
6.564001081e-13
8.027333603e-13
1.105580172e-12
2.45328549e-11
1.748853414e-11
1.306797267e-11
1.013953466e-11
8.096585312e-12
6.615290167e-12
5.510483554e-12
4.668253361e-12
4.014375707e-12
3.498473007e-12
3.085362201e-12
2.74995679e-12
2.474079689e-12
2.244383376e-12
2.050950775e-12
1.886333205e-12
1.744878124e-12
1.622253581e-12
1.515108228e-12
1.42082581e-12
1.337346451e-12
1.263035977e-12
1.196589875e-12
1.136962185e-12
1.083312809e-12
1.034969067e-12
9.91398419e-13
9.521899419e-13
9.170431923e-13
8.857643562e-13
8.582703162e-13
8.346017122e-13
8.149471782e-13
7.996831695e-13
7.894370448e-13
7.851860929e-13
7.88415014e-13
8.013757578e-13
8.275422048e-13
8.7246806e-13
9.455414376e-13
1.063804402e-12
1.260202919e-12
1.597327449e-12
3.018644481e-11
2.262434961e-11
1.737227516e-11
1.367786832e-11
1.101488607e-11
9.049044476e-12
7.567374608e-12
6.430202599e-12
5.543087935e-12
4.840535818e-12
4.27620864e-12
3.816792529e-12
3.438012091e-12
3.121966768e-12
2.855311866e-12
2.627995473e-12
2.432369912e-12
2.262560391e-12
2.1140121e-12
1.983161991e-12
1.867199133e-12
1.763889241e-12
1.671445621e-12
1.588433271e-12
1.513697462e-12
1.446311631e-12
1.385540529e-12
1.330815033e-12
1.28171663e-12
1.23797168e-12
1.199456493e-12
1.166214362e-12
1.138487001e-12
1.116765954e-12
1.1018736e-12
1.095088602e-12
1.098340166e-12
1.11451504e-12
1.147960332e-12
1.20534185e-12
1.297155085e-12
1.440339752e-12
1.662079916e-12
2.001140759e-12
3.467048417e-11
2.684746876e-11
2.106113891e-11
1.680868329e-11
1.36577447e-11
1.12915013e-11
9.488153585e-12
8.093353246e-12
6.998878514e-12
6.127984896e-12
5.4256036e-12
4.851767962e-12
4.377156688e-12
3.980034846e-12
3.644129167e-12
3.357135561e-12
3.109660665e-12
2.894465789e-12
2.705922332e-12
2.539615146e-12
2.392051567e-12
2.260448191e-12
2.142574035e-12
2.036633269e-12
1.941177125e-12
1.855039715e-12
1.777293035e-12
1.707215893e-12
1.644273972e-12
1.588111811e-12
1.538558423e-12
1.495647345e-12
1.459653085e-12
1.431150304e-12
1.411106874e-12
1.401026092e-12
1.40316031e-12
1.42083228e-12
1.458923169e-12
1.524613992e-12
1.628473424e-12
1.785833942e-12
2.017600323e-12
2.346983166e-12
3.822623592e-11
3.026589176e-11
2.414396881e-11
1.950428969e-11
1.599057158e-11
1.331155952e-11
1.124751692e-11
9.637846479e-12
8.366333211e-12
7.348855581e-12
6.524210847e-12
5.84754042e-12
5.28568571e-12
4.813916871e-12
4.413621733e-12
4.070662209e-12
3.774197972e-12
3.515841589e-12
3.289047388e-12
3.08866307e-12
2.91059849e-12
2.75158309e-12
2.608987934e-12
2.480691165e-12
2.364975331e-12
2.260453006e-12
2.166015707e-12
2.080798048e-12
2.004153082e-12
1.935641307e-12
1.87503653e-12
1.822348151e-12
1.777860112e-12
1.742193473e-12
1.716405454e-12
1.702139577e-12
1.701844249e-12
1.719085178e-12
1.758984664e-12
1.828810082e-12
1.938659658e-12
2.101932485e-12
2.3345541e-12
2.650628698e-12
4.098466574e-11
3.295794566e-11
2.664115702e-11
2.175502332e-11
1.799360155e-11
1.508863942e-11
1.282735427e-11
1.104873045e-11
9.633415146e-12
8.49353476e-12
7.564350265e-12
6.797946055e-12
6.158618724e-12
5.619556607e-12
5.160458012e-12
4.765815628e-12
4.423675961e-12
4.1247443e-12
3.861735055e-12
3.628889644e-12
3.42161628e-12
3.236227563e-12
3.069749762e-12
2.919775564e-12
2.784348218e-12
2.66187894e-12
2.551092931e-12
2.450990363e-12
2.360815995e-12
2.280043974e-12
2.208384103e-12
2.145806272e-12
2.092579165e-12
2.049331146e-12
2.017149511e-12
1.997731624e-12
1.993598322e-12
2.008384259e-12
2.047220127e-12
2.117189981e-12
2.227737957e-12
2.390628817e-12
2.618531973e-12
2.920791416e-12
1.376846698e-12
2.372544629e-12
3.229424583e-12
3.956139498e-12
4.578499179e-12
5.117505636e-12
5.588543427e-12
6.002879527e-12
6.36897321e-12
6.693370896e-12
6.981286552e-12
7.236977529e-12
7.463992329e-12
7.665338336e-12
7.843598754e-12
8.001016554e-12
8.13955654e-12
8.260952471e-12
8.366743586e-12
8.458303535e-12
8.536863682e-12
8.603532138e-12
8.659309535e-12
8.705102251e-12
8.741733571e-12
8.769953192e-12
8.790445344e-12
8.803835786e-12
8.810697845e-12
8.811557705e-12
8.80689903e-12
8.797167048e-12
8.78277215e-12
8.764093069e-12
8.741479687e-12
8.715255541e-12
8.685720066e-12
8.653150613e-12
8.617804282e-12
8.579919566e-12
8.539717833e-12
8.497404672e-12
8.453171084e-12
8.407194586e-12
8.359640208e-12
8.310661402e-12
8.260400896e-12
8.20899147e-12
8.156556662e-12
8.103211424e-12
8.049062713e-12
7.994210029e-12
7.938745917e-12
7.882756439e-12
7.826321597e-12
7.769515752e-12
7.712408004e-12
7.655062544e-12
7.597538984e-12
7.539892665e-12
7.482174929e-12
7.424433384e-12
7.366712146e-12
7.309052056e-12
7.251490889e-12
7.194063559e-12
7.136802293e-12
7.079736806e-12
7.022894474e-12
6.966300475e-12
6.909977939e-12
6.853948085e-12
6.79823034e-12
6.742842461e-12
6.687800647e-12
6.633119633e-12
6.578812793e-12
6.524892227e-12
6.471368838e-12
6.418252415e-12
6.365551705e-12
6.313274471e-12
6.261427563e-12
6.210016981e-12
6.15904792e-12
6.108524831e-12
6.058451477e-12
6.008830969e-12
5.959665821e-12
5.910957991e-12
5.862708919e-12
5.814919564e-12
5.767590442e-12
5.720721656e-12
5.674312928e-12
5.628363621e-12
5.582872775e-12
5.537839122e-12
5.493261114e-12
5.449136945e-12
5.405464565e-12
5.362241704e-12
5.319465891e-12
5.277134464e-12
5.235244591e-12
5.193793286e-12
5.152777415e-12
5.112193717e-12
5.072038814e-12
5.032309221e-12
4.993001355e-12
4.954111553e-12
4.915636073e-12
4.877571106e-12
4.839912788e-12
4.802657201e-12
4.765800383e-12
4.729338339e-12
4.693267041e-12
4.657582436e-12
4.622280455e-12
4.587357012e-12
4.552808012e-12
4.518629356e-12
4.484816944e-12
4.451366678e-12
4.418274466e-12
4.385536227e-12
4.353147889e-12
4.321105399e-12
4.289404719e-12
4.25804183e-12
4.227012738e-12
4.19631347e-12
4.165940078e-12
4.135888644e-12
4.106155277e-12
4.076736114e-12
4.047627325e-12
4.018825112e-12
3.990325709e-12
3.962125384e-12
3.934220441e-12
3.906607215e-12
3.879282083e-12
3.852241453e-12
3.825481773e-12
3.798999527e-12
3.772791238e-12
3.746853463e-12
3.721182803e-12
3.695775893e-12
3.670629409e-12
3.645740065e-12
3.621104616e-12
3.596719852e-12
3.572582607e-12
3.548689752e-12
3.525038197e-12
3.501624893e-12
3.478446831e-12
3.455501041e-12
3.432784589e-12
3.410294586e-12
3.388028179e-12
3.365982551e-12
3.344154928e-12
3.322542569e-12
3.301142773e-12
3.279952873e-12
3.258970239e-12
3.238192274e-12
3.217616414e-12
3.197240131e-12
3.177060924e-12
3.157076329e-12
3.137283909e-12
3.117681259e-12
3.098266005e-12
3.079035802e-12
3.059988336e-12
3.041121326e-12
3.022432518e-12
3.003919693e-12
2.985580663e-12
2.967413271e-12
2.94941539e-12
2.931584931e-12
2.913919829e-12
2.896418055e-12
2.879077608e-12
2.861896516e-12
2.844872835e-12
2.828004652e-12
2.811290075e-12
2.794727241e-12
2.778314315e-12
2.762049482e-12
2.745930957e-12
2.729956976e-12
2.714125804e-12
2.698435725e-12
2.682885053e-12
2.667472123e-12
2.652195293e-12
2.637052946e-12
2.622043486e-12
2.607165337e-12
2.592416946e-12
2.577796778e-12
2.563303319e-12
2.548935075e-12
2.534690571e-12
2.520568351e-12
2.506566982e-12
2.492685047e-12
2.478921154e-12
2.465273928e-12
2.451742017e-12
2.438324088e-12
2.425018831e-12
2.411824957e-12
2.398741202e-12
2.385766324e-12
2.372899107e-12
2.360138363e-12
2.347482931e-12
2.334931674e-12
2.322483481e-12
2.310137259e-12
2.297891932e-12
2.285746426e-12
2.273699668e-12
2.261750572e-12
2.24989804e-12
2.238140953e-12
2.226478177e-12
2.214908574e-12
2.203431011e-12
2.192044386e-12
2.18074764e-12
2.169539781e-12
2.158419893e-12
2.147387128e-12
2.136440695e-12
2.125579829e-12
2.114803748e-12
2.104111615e-12
2.09350251e-12
2.082975418e-12
2.072529252e-12
2.0621629e-12
2.051875287e-12
2.04166544e-12
2.031532535e-12
2.021475905e-12
2.011495001e-12
2.001589323e-12
1.991758332e-12
1.982001384e-12
1.972317698e-12
1.962706392e-12
1.953166547e-12
1.943697305e-12
1.934297917e-12
1.924967757e-12
1.915706267e-12
1.906512867e-12
1.897386884e-12
1.888327535e-12
1.879333977e-12
1.8704054e-12
1.861541126e-12
1.852740647e-12
1.844003589e-12
1.835329618e-12
1.826718325e-12
1.818169163e-12
1.809681447e-12
1.80125441e-12
1.79288728e-12
1.78457932e-12
1.776329842e-12
1.768138183e-12
1.7600037e-12
1.751925767e-12
1.743903796e-12
1.735937252e-12
1.728025656e-12
1.720168559e-12
1.712365505e-12
1.704616011e-12
1.696919583e-12
1.689275766e-12
1.681684182e-12
1.674144527e-12
1.66665653e-12
1.659219887e-12
1.651834247e-12
1.64449905e-12
1.637213179e-12
1.629974891e-12
1.622781931e-12
1.615631551e-12
1.608520924e-12
1.601449358e-12
1.59404484e-12
1.585912602e-12
1.576989726e-12
1.567218422e-12
1.556535645e-12
1.544874894e-12
1.532159995e-12
1.518309452e-12
1.503229572e-12
1.48682111e-12
1.46898149e-12
1.449611442e-12
1.428612185e-12
1.405897626e-12
1.38138615e-12
1.355006461e-12
1.326700425e-12
1.296416027e-12
1.264121344e-12
1.229795939e-12
1.193440999e-12
1.155087387e-12
1.114784414e-12
1.072631338e-12
1.02875349e-12
9.833290972e-13
9.36584042e-13
8.887974285e-13
8.403079953e-13
7.915277177e-13
7.42930961e-13
6.95097526e-13
6.486892092e-13
6.045141907e-13
5.635174577e-13
5.268681778e-13
4.95994089e-13
4.727287851e-13
4.594606641e-13
1.790242712e-12
2.591419946e-12
3.346034193e-12
4.019488496e-12
4.613315146e-12
5.136740028e-12
5.59925882e-12
6.009043805e-12
6.372854491e-12
6.696270988e-12
6.983944215e-12
7.239798285e-12
7.467183035e-12
7.668987566e-12
7.847725491e-12
8.005599928e-12
8.144554041e-12
8.26631107e-12
8.372406482e-12
8.464214164e-12
8.542968021e-12
8.609779933e-12
8.665654867e-12
8.711503703e-12
8.748154168e-12
8.776360201e-12
8.796809995e-12
8.810132932e-12
8.816905616e-12
8.817657159e-12
8.812873845e-12
8.803003258e-12
8.78845791e-12
8.769618446e-12
8.746836456e-12
8.720436985e-12
8.690720785e-12
8.65796636e-12
8.622431819e-12
8.584356557e-12
8.543962757e-12
8.501456738e-12
8.457030159e-12
8.410861108e-12
8.363115106e-12
8.313946029e-12
8.263496965e-12
8.211901012e-12
8.15928199e-12
8.105755102e-12
8.051427526e-12
7.996398951e-12
7.940762074e-12
7.884603078e-12
7.828002055e-12
7.771033434e-12
7.713766367e-12
7.656265085e-12
7.598589231e-12
7.54079417e-12
7.482931261e-12
7.425048114e-12
7.367188836e-12
7.309394243e-12
7.251702078e-12
7.194147211e-12
7.136761821e-12
7.079575573e-12
7.022615792e-12
6.965907604e-12
6.909474091e-12
6.853336425e-12
6.797513986e-12
6.742024483e-12
6.686884069e-12
6.63210743e-12
6.57770789e-12
6.523697496e-12
6.470087097e-12
6.416886423e-12
6.364104159e-12
6.311748007e-12
6.259824755e-12
6.208340334e-12
6.157299876e-12
6.106707769e-12
6.05656771e-12
6.006882751e-12
5.957655345e-12
5.908887394e-12
5.860580283e-12
5.812734918e-12
5.765351766e-12
5.718430883e-12
5.671971941e-12
5.625974261e-12
5.580436837e-12
5.535358357e-12
5.490737229e-12
5.446571604e-12
5.402859389e-12
5.35959827e-12
5.316785735e-12
5.274419078e-12
5.232495426e-12
5.191011749e-12
5.149964875e-12
5.1093515e-12
5.069168209e-12
5.029411476e-12
4.990077682e-12
4.951163127e-12
4.912664034e-12
4.874576557e-12
4.8368968e-12
4.799620811e-12
4.762744597e-12
4.726264133e-12
4.69017536e-12
4.654474195e-12
4.619156543e-12
4.584218289e-12
4.549655312e-12
4.515463488e-12
4.481638691e-12
4.448176799e-12
4.415073699e-12
4.382325284e-12
4.349927462e-12
4.317876158e-12
4.286167313e-12
4.254796889e-12
4.223760871e-12
4.193055268e-12
4.162676114e-12
4.132619473e-12
4.102881435e-12
4.073458121e-12
4.044345685e-12
4.015540313e-12
3.987038221e-12
3.958835665e-12
3.93092893e-12
3.903314341e-12
3.875988257e-12
3.848947073e-12
3.822187224e-12
3.795705181e-12
3.769497451e-12
3.743560582e-12
3.71789116e-12
3.692485809e-12
3.667341192e-12
3.642454012e-12
3.617821011e-12
3.593438971e-12
3.569304711e-12
3.545415093e-12
3.521767018e-12
3.498357425e-12
3.475183297e-12
3.452241651e-12
3.42952955e-12
3.407044092e-12
3.384782417e-12
3.362741703e-12
3.340919168e-12
3.319312066e-12
3.297917691e-12
3.276733371e-12
3.255756473e-12
3.234984395e-12
3.214414572e-12
3.194044472e-12
3.173871593e-12
3.153893466e-12
3.134107653e-12
3.114511743e-12
3.09510336e-12
3.075880153e-12
3.056839803e-12
3.037980022e-12
3.019298552e-12
3.000793164e-12
2.982461665e-12
2.964301891e-12
2.94631171e-12
2.928489025e-12
2.910831769e-12
2.893337905e-12
2.876005431e-12
2.858832372e-12
2.84181678e-12
2.82495674e-12
2.808250358e-12
2.79169577e-12
2.775291136e-12
2.75903464e-12
2.742924491e-12
2.726958926e-12
2.711136202e-12
2.695454604e-12
2.679912441e-12
2.664508046e-12
2.649239776e-12
2.634106011e-12
2.619105155e-12
2.60423563e-12
2.589495881e-12
2.574884372e-12
2.560399587e-12
2.54604003e-12
2.531804222e-12
2.517690707e-12
2.503698049e-12
2.489824831e-12
2.476069661e-12
2.462431165e-12
2.448907993e-12
2.435498816e-12
2.422202327e-12
2.409017241e-12
2.395942294e-12
2.382976247e-12
2.370117882e-12
2.357366006e-12
2.344719451e-12
2.332177072e-12
2.319737745e-12
2.307400368e-12
2.295163848e-12
2.283027103e-12
2.270989051e-12
2.259048605e-12
2.247204668e-12
2.23545613e-12
2.223801875e-12
2.212240784e-12
2.200771748e-12
2.189393684e-12
2.178105547e-12
2.166906349e-12
2.155795159e-12
2.144771106e-12
2.13383336e-12
2.122981112e-12
2.112213542e-12
2.101529792e-12
2.090928945e-12
2.080410016e-12
2.069971974e-12
2.059613776e-12
2.04933441e-12
2.039132944e-12
2.029008556e-12
2.018960542e-12
2.008988283e-12
1.999091199e-12
1.989268688e-12
1.979520076e-12
1.969844603e-12
1.960241437e-12
1.950709727e-12
1.941248658e-12
1.931857491e-12
1.922535566e-12
1.913282271e-12
1.904096981e-12
1.89497902e-12
1.885927644e-12
1.876942077e-12
1.868021571e-12
1.859165473e-12
1.850373241e-12
1.841644424e-12
1.832978601e-12
1.824375302e-12
1.815833967e-12
1.80735394e-12
1.798934507e-12
1.790574937e-12
1.78227452e-12
1.774032576e-12
1.76584845e-12
1.757721508e-12
1.749651137e-12
1.741636759e-12
1.73367784e-12
1.725773885e-12
1.717924429e-12
1.710129011e-12
1.702387165e-12
1.694698437e-12
1.687062419e-12
1.679478781e-12
1.671947283e-12
1.664467761e-12
1.657040076e-12
1.649664031e-12
1.642339143e-12
1.63506431e-12
1.627837552e-12
1.620655822e-12
1.613515235e-12
1.606412668e-12
1.599346112e-12
1.591940228e-12
1.583807023e-12
1.574882061e-12
1.565111339e-12
1.554433786e-12
1.542783578e-12
1.530085735e-12
1.516256783e-12
1.501201534e-12
1.484818495e-12
1.467003675e-12
1.447656561e-12
1.426679596e-12
1.403986898e-12
1.379498508e-12
1.353144343e-12
1.324866607e-12
1.294614103e-12
1.262354653e-12
1.228067859e-12
1.191754703e-12
1.153445792e-12
1.113190374e-12
1.071087653e-12
1.027262398e-12
9.818935994e-13
9.352056452e-13
8.874786892e-13
8.390500008e-13
7.903316256e-13
7.417972085e-13
6.940255814e-13
6.476779108e-13
6.035610446e-13
5.62618732e-13
5.260184634e-13
4.951859122e-13
4.719520465e-13
4.587019881e-13
2.159790239e-12
2.828333302e-12
3.494083925e-12
4.113682431e-12
4.67540078e-12
5.179564235e-12
5.63039683e-12
6.033010936e-12
6.392375932e-12
6.713008694e-12
6.998918685e-12
7.253637644e-12
7.480272712e-12
7.681561662e-12
7.85992331e-12
8.017501326e-12
8.156201728e-12
8.277724777e-12
8.383592013e-12
8.475169202e-12
8.553685825e-12
8.620251679e-12
8.675871096e-12
8.721455223e-12
8.7578326e-12
8.785758292e-12
8.805921766e-12
8.818953695e-12
8.825431906e-12
8.825886634e-12
8.820805186e-12
8.810636091e-12
8.795792746e-12
8.776656613e-12
8.75358002e-12
8.726888647e-12
8.696883773e-12
8.663844332e-12
8.628028794e-12
8.589676873e-12
8.549011043e-12
8.506237891e-12
8.461549306e-12
8.415123561e-12
8.367126311e-12
8.31771152e-12
8.267022334e-12
8.215191885e-12
8.162344024e-12
8.108593974e-12
8.054048926e-12
7.998808562e-12
7.942965554e-12
7.886606032e-12
7.829810021e-12
7.772651864e-12
7.715200625e-12
7.657520446e-12
7.599670886e-12
7.541707227e-12
7.48368074e-12
7.425638948e-12
7.36762586e-12
7.309682189e-12
7.251845566e-12
7.194150746e-12
7.136629791e-12
7.079312252e-12
7.02222534e-12
6.965394078e-12
6.908841444e-12
6.852588515e-12
6.796654579e-12
6.741057256e-12
6.685812612e-12
6.630935249e-12
6.576438405e-12
6.522334044e-12
6.468632928e-12
6.415344703e-12
6.362477967e-12
6.310040334e-12
6.258038504e-12
6.206478323e-12
6.155364836e-12
6.104702345e-12
6.054494467e-12
6.004744173e-12
5.955453841e-12
5.9066253e-12
5.858259865e-12
5.810358379e-12
5.762921244e-12
5.715948458e-12
5.669439635e-12
5.62339404e-12
5.577810614e-12
5.532687991e-12
5.488024529e-12
5.443818326e-12
5.40006724e-12
5.356768906e-12
5.313920763e-12
5.271520057e-12
5.229563865e-12
5.188049114e-12
5.146972581e-12
5.106330922e-12
5.066120673e-12
5.026338269e-12
4.986980048e-12
4.948042269e-12
4.909521115e-12
4.871412705e-12
4.833713103e-12
4.796418324e-12
4.759524339e-12
4.72302709e-12
4.686922486e-12
4.651206413e-12
4.615874745e-12
4.580923339e-12
4.546348045e-12
4.512144713e-12
4.47830919e-12
4.444837328e-12
4.411724989e-12
4.378968044e-12
4.346562376e-12
4.31450389e-12
4.282788504e-12
4.251412159e-12
4.220370821e-12
4.189660478e-12
4.159277145e-12
4.129216867e-12
4.099475718e-12
4.070049801e-12
4.040935252e-12
4.01212824e-12
3.983624968e-12
3.955421673e-12
3.927514627e-12
3.899900138e-12
3.872574552e-12
3.84553425e-12
3.818775652e-12
3.792295216e-12
3.766089437e-12
3.740154848e-12
3.714488024e-12
3.689085576e-12
3.663944154e-12
3.639060451e-12
3.614431196e-12
3.59005316e-12
3.565923151e-12
3.542038021e-12
3.51839466e-12
3.494989997e-12
3.471821004e-12
3.448884691e-12
3.42617811e-12
3.403698352e-12
3.38144255e-12
3.359407875e-12
3.337591537e-12
3.315990787e-12
3.294602912e-12
3.273425238e-12
3.252455127e-12
3.231689975e-12
3.211127215e-12
3.190764311e-12
3.170598759e-12
3.150628089e-12
3.130849858e-12
3.111261653e-12
3.091861093e-12
3.072645822e-12
3.053613516e-12
3.034761881e-12
3.016088651e-12
2.997591592e-12
2.979268503e-12
2.961117212e-12
2.943135584e-12
2.925321513e-12
2.907672929e-12
2.890187792e-12
2.872864095e-12
2.85569986e-12
2.838693139e-12
2.821842012e-12
2.805144587e-12
2.788598994e-12
2.772203391e-12
2.755955962e-12
2.739854911e-12
2.72389847e-12
2.708084896e-12
2.692412469e-12
2.676879496e-12
2.661484308e-12
2.64622526e-12
2.631100732e-12
2.616109124e-12
2.601248859e-12
2.586518381e-12
2.571916153e-12
2.557440655e-12
2.543090389e-12
2.528863876e-12
2.514759655e-12
2.500776288e-12
2.48691236e-12
2.473166476e-12
2.459537265e-12
2.446023378e-12
2.432623491e-12
2.419336299e-12
2.406160521e-12
2.393094894e-12
2.380138179e-12
2.367289158e-12
2.354546633e-12
2.341909428e-12
2.329376392e-12
2.316946389e-12
2.304618307e-12
2.292391043e-12
2.280263508e-12
2.268234612e-12
2.256303269e-12
2.244468384e-12
2.232728857e-12
2.221083584e-12
2.209531462e-12
2.1980714e-12
2.186702327e-12
2.17542321e-12
2.164233059e-12
2.153130934e-12
2.14211594e-12
2.13118722e-12
2.120343933e-12
2.109585233e-12
2.098910248e-12
2.088318064e-12
2.077807724e-12
2.067378237e-12
2.057028609e-12
2.046757876e-12
2.036565133e-12
2.026449561e-12
2.016410426e-12
2.00644706e-12
1.996558828e-12
1.986745081e-12
1.977005125e-12
1.96733821e-12
1.957743539e-12
1.948220302e-12
1.938767715e-12
1.929385047e-12
1.920071617e-12
1.910826781e-12
1.901649888e-12
1.89254026e-12
1.883497179e-12
1.874519913e-12
1.865607756e-12
1.856760065e-12
1.847976275e-12
1.839255885e-12
1.830598413e-12
1.822003346e-12
1.813470113e-12
1.804998074e-12
1.796586547e-12
1.788234833e-12
1.779942243e-12
1.771708109e-12
1.763531782e-12
1.755412637e-12
1.747350071e-12
1.739343515e-12
1.731392431e-12
1.723496318e-12
1.715654701e-12
1.707867118e-12
1.700133116e-12
1.692452271e-12
1.684824208e-12
1.677248644e-12
1.669725406e-12
1.662254443e-12
1.654835774e-12
1.647469355e-12
1.640154782e-12
1.632890907e-12
1.625675487e-12
1.618504711e-12
1.611373132e-12
1.604277441e-12
1.597217663e-12
1.589813913e-12
1.581681999e-12
1.572757564e-12
1.562989387e-12
1.552318931e-12
1.540680943e-12
1.528000757e-12
1.514193298e-12
1.499161889e-12
1.482803212e-12
1.465012173e-12
1.445687458e-12
1.424732587e-12
1.402062072e-12
1.377597359e-12
1.351269424e-12
1.323020796e-12
1.29280089e-12
1.260577374e-12
1.226329821e-12
1.190059007e-12
1.151795388e-12
1.11158803e-12
1.069536221e-12
1.02576408e-12
9.80451406e-13
9.338210746e-13
8.861542915e-13
8.377868368e-13
7.891308456e-13
7.406592051e-13
6.929498062e-13
6.466631528e-13
6.026047809e-13
5.617171801e-13
5.251661749e-13
4.943753594e-13
4.711730781e-13
4.579411584e-13
2.489310348e-12
3.066336872e-12
3.660023722e-12
4.230310374e-12
4.759794663e-12
5.243060229e-12
5.680225809e-12
6.073743647e-12
6.426913007e-12
6.743208833e-12
7.02598762e-12
7.278368092e-12
7.503193247e-12
7.703029978e-12
7.880185298e-12
8.036728897e-12
8.174517291e-12
8.295217277e-12
8.400327585e-12
8.491198307e-12
8.569048076e-12
8.634979086e-12
8.689990291e-12
8.734989e-12
8.770801027e-12
8.798179518e-12
8.817812575e-12
8.830329858e-12
8.836308385e-12
8.836277704e-12
8.830724542e-12
8.820096956e-12
8.804807991e-12
8.785238845e-12
8.761741618e-12
8.734641756e-12
8.704240268e-12
8.670815788e-12
8.634626491e-12
8.595911816e-12
8.554894011e-12
8.511779465e-12
8.46675988e-12
8.420013329e-12
8.371705242e-12
8.321989333e-12
8.27100849e-12
8.218895604e-12
8.165774296e-12
8.111759584e-12
8.056958465e-12
8.001470425e-12
7.945387928e-12
7.888796883e-12
7.831777079e-12
7.774402626e-12
7.716742355e-12
7.658860193e-12
7.600815493e-12
7.542663349e-12
7.484454848e-12
7.426237333e-12
7.36805463e-12
7.309947265e-12
7.251952682e-12
7.194105445e-12
7.136437431e-12
7.078978011e-12
7.021754225e-12
6.964790932e-12
6.908110959e-12
6.851735237e-12
6.795682917e-12
6.73997149e-12
6.684616895e-12
6.629633614e-12
6.575034766e-12
6.520832199e-12
6.46703656e-12
6.413657382e-12
6.360703151e-12
6.308181368e-12
6.256098623e-12
6.20446065e-12
6.153272389e-12
6.102538037e-12
6.052261109e-12
6.002444479e-12
5.953090433e-12
5.904200711e-12
5.855776546e-12
5.8078187e-12
5.760327503e-12
5.713302879e-12
5.666744377e-12
5.620651195e-12
5.57502221e-12
5.529855998e-12
5.485150854e-12
5.440904819e-12
5.397115692e-12
5.353781053e-12
5.310898283e-12
5.268464575e-12
5.226476952e-12
5.184932287e-12
5.143827309e-12
5.103158621e-12
5.062922713e-12
5.023115971e-12
4.983734688e-12
4.94477508e-12
4.906233286e-12
4.868105384e-12
4.830387399e-12
4.793075306e-12
4.756165041e-12
4.719652509e-12
4.683533585e-12
4.647804122e-12
4.612459962e-12
4.57749693e-12
4.542910847e-12
4.508697535e-12
4.474852812e-12
4.441372504e-12
4.408252447e-12
4.375488487e-12
4.343076484e-12
4.311012318e-12
4.279291885e-12
4.247911106e-12
4.216865924e-12
4.186152308e-12
4.155766253e-12
4.125703785e-12
4.095960959e-12
4.066533861e-12
4.037418609e-12
4.008611356e-12
3.980108287e-12
3.951905625e-12
3.923999625e-12
3.896386581e-12
3.869062824e-12
3.84202472e-12
3.815268676e-12
3.788791135e-12
3.762588579e-12
3.736657529e-12
3.710994547e-12
3.685596231e-12
3.660459219e-12
3.635580192e-12
3.610955868e-12
3.586583006e-12
3.562458403e-12
3.538578901e-12
3.514941377e-12
3.491542753e-12
3.468379989e-12
3.445450088e-12
3.422750091e-12
3.400277083e-12
3.378028187e-12
3.356000569e-12
3.334191433e-12
3.312598025e-12
3.291217626e-12
3.27004756e-12
3.249085186e-12
3.228327896e-12