/*--------------------------------*- C++ -*----------------------------------*\
| =========                 |                                                 |
| \\      /  F ield         | OpenFOAM: The Open Source CFD Toolbox           |
|  \\    /   O peration     | Version:  2406                                  |
|   \\  /    A nd           | Website:  www.openfoam.com                      |
|    \\/     M anipulation  |                                                 |
\*---------------------------------------------------------------------------*/
FoamFile
{
    version     2.0;
    format      ascii;
    arch        "LSB;label=32;scalar=64";
    class       volVectorField;
    location    "7e-05/encapsulator";
    object      EExtAmp;
}
// * * * * * * * * * * * * * * * * * * * * * * * * * * * * * * * * * * * * * //

dimensions      [1 1 -3 0 0 -1 0];

internalField   nonuniform List<vector> 
26298
(
(-594.0058107 672.9986835 -0)
(-1641.470628 793.4439281 -0)
(-2414.227321 862.9495805 -0)
(-2945.894582 886.3705046 -0)
(-3296.122638 888.6464742 -0)
(-3522.775354 883.99807 -0)
(-3668.691565 878.2944194 -0)
(-3762.595024 873.4500394 -0)
(-3823.093046 869.8269954 -0)
(-3862.120556 867.2766234 -0)
(-3889.583828 865.3834494 -0)
(-3913.86377 863.6399913 -0)
(-3938.093651 861.8305482 -0)
(-3962.271798 859.9551296 -0)
(-443.7570367 1755.235199 -0)
(-1357.310979 2255.942966 -0)
(-2210.625847 2569.601748 -0)
(-2865.74448 2695.477615 -0)
(-3318.656221 2728.674605 -0)
(-3618.292391 2726.945283 -0)
(-3813.232946 2715.577428 -0)
(-3939.348664 2703.836826 -0)
(-4020.82526 2694.386004 -0)
(-4073.466572 2687.489935 -0)
(-4110.544943 2682.268749 -0)
(-4143.347985 2677.392151 -0)
(-4176.101274 2672.265398 -0)
(-4208.800493 2666.888666 -0)
(-57.66990215 2207.774216 -0)
(-588.3651231 3473.227712 -0)
(-1579.634647 4341.162697 -0)
(-2501.95313 4735.473784 -0)
(-3186.133917 4876.180071 -0)
(-3651.96637 4910.828101 -0)
(-3958.800132 4908.176758 -0)
(-4158.408198 4895.726141 -0)
(-4287.697313 4883.136348 -0)
(-4371.334615 4873.084081 -0)
(-4430.284508 4865.122886 -0)
(-4482.457709 4857.457445 -0)
(-4534.566387 4849.181456 -0)
(-4586.60033 4840.295853 -0)
(673.8384818 1839.470389 -0)
(939.2833886 4406.704772 -0)
(-208.1869861 6346.042916 -0)
(-1592.412288 7304.744792 -0)
(-2702.711961 7689.092113 -0)
(-3480.898402 7816.336812 -0)
(-3999.217616 7843.886454 -0)
(-4337.838097 7838.151202 -0)
(-4557.500159 7824.484052 -0)
(-4699.666834 7811.458235 -0)
(-4799.878965 7800.360478 -0)
(-4888.565942 7789.185377 -0)
(-4977.130265 7776.670974 -0)
(-5065.54662 7762.820332 -0)
(1805.196495 530.3191553 -0)
(3437.258143 4924.849379 -0)
(2228.314819 8651.5437 -0)
(157.8138726 10652.14051 -0)
(-1656.830252 11512.27648 -0)
(-2970.329526 11828.2089 -0)
(-3855.840336 11921.09004 -0)
(-4436.843602 11932.71745 -0)
(-4814.231391 11919.68283 -0)
(-5058.532999 11902.60394 -0)
(-5230.714638 11886.60824 -0)
(-5383.052451 11869.65897 -0)
(-5535.124933 11849.93932 -0)
(-5686.871962 11827.45674 -0)
(3290.143721 -1698.712229 -0)
(6960.84237 4819.865044 -0)
(6008.626574 11166.53646 -0)
(3080.484669 14926.2117 -0)
(210.7370143 16652.96184 -0)
(-1954.968561 17329.44281 -0)
(-3439.314875 17553.41963 -0)
(-4419.445612 17603.70641 -0)
(-5057.539986 17595.77954 -0)
(-5470.893322 17573.57586 -0)
(-5762.251207 17550.10168 -0)
(-6019.998154 17523.8033 -0)
(-6277.227544 17492.01472 -0)
(-6533.799794 17454.74944 -0)
(4986.054558 -4672.539301 -0)
(11365.08555 3873.344074 -0)
(11295.35729 13602.21679 -0)
(7532.151247 20096.63162 -0)
(3240.244609 23319.31756 -0)
(-189.3377475 24662.26779 -0)
(-2597.227504 25145.81282 -0)
(-4203.537211 25282.93067 -0)
(-5253.83429 25295.46078 -0)
(-5935.435453 25271.20537 -0)
(-6416.241013 25239.23723 -0)
(-6841.719147 25200.42868 -0)
(-7266.380171 25151.13833 -0)
(-7689.912806 25091.37998 -0)
(6705.006769 -8112.45934 -0)
(16328.98654 1956.093981 -0)
(18059.85211 15511.10883 -0)
(13832.73073 25890.02942 -0)
(7851.357661 31539.65924 -0)
(2685.786185 34062.81025 -0)
(-1066.669705 35045.55073 -0)
(-3609.106709 35372.06105 -0)
(-5283.592977 35446.41562 -0)
(-6374.026663 35435.75877 -0)
(-7144.610864 35401.10301 -0)
(-7827.240502 35351.1769 -0)
(-8509.024221 35281.98122 -0)
(-9189.29716 35193.49643 -0)
(8277.943142 -11716.34352 -0)
(21440.3878 -898.6271556 -0)
(26041.48566 16418.30774 -0)
(22156.04266 31787.37395 -0)
(14479.62542 41086.58879 -0)
(7132.484303 45575.81442 -0)
(1544.798504 47466.16744 -0)
(-2324.80236 48176.72617 -0)
(-4901.150502 48403.00707 -0)
(-6588.216601 48447.68379 -0)
(-7784.171113 48431.81647 -0)
(-8845.749195 48384.01432 -0)
(-9907.582204 48302.23691 -0)
(-10968.32717 48186.32174 -0)
(9596.671162 -15227.03983 -0)
(26304.65601 -4495.352746 -0)
(34778.33869 15988.61865 -0)
(32419.90636 37117.55188 -0)
(23452.12624 51447.6287 -0)
(13640.9249 58974.17512 -0)
(5727.193876 62396.413 -0)
(86.35829423 63817.60505 -0)
(-3725.384286 64361.79751 -0)
(-6241.29208 64547.00854 -0)
(-8033.17011 64599.02342 -0)
(-9628.712623 64588.68947 -0)
(-11228.52994 64521.20797 -0)
(-12830.07091 64395.99748 -0)
(10621.85936 -18466.85538 -0)
(30630.41796 -8541.608064 -0)
(43708.9703 14138.48348 -0)
(44244.60878 41232.80843 -0)
(34846.65918 61883.935 -0)
(22598.40839 73726.70381 -0)
(11975.53216 79527.68298 -0)
(4126.233443 82143.41505 -0)
(-1279.283747 83270.21911 -0)
(-4884.522562 83741.20435 -0)
(-7468.487055 83950.03657 -0)
(-9779.32514 84045.67135 -0)
(-12104.39077 84050.05723 -0)
(-14439.17809 83961.61574 -0)
(11367.11596 -21339.67297 -0)
(34264.29072 -12732.40133 -0)
(52301.35397 11039.35824 -0)
(57015.03642 43690.80487 -0)
(48405.55057 71580.97144 -0)
(34145.61364 89052.05909 -0)
(20653.48046 98242.93489 -0)
(10247.54714 102686.0734 -0)
(2915.771332 104765.1541 -0)
(-2037.147587 105735.5381 -0)
(-5615.075981 106237.566 -0)
(-8832.478113 106548.6258 -0)
(-12084.20642 106721.8705 -0)
(-15362.89279 106753.6942 -0)
(11875.53249 -23814.28071 -0)
(37177.62214 -16813.31916 -0)
(60153.10955 7032.009505 -0)
(70020.30276 44355.72905 -0)
(63557.13312 79839.07767 -0)
(48086.95471 104059.5004 -0)
(31864.52613 117692.191 -0)
(18722.42822 124691.1152 -0)
(9216.352464 128176.2646 -0)
(2698.550899 129920.5913 -0)
(-2053.512504 130897.083 -0)
(-6354.699955 131573.5792 -0)
(-10725.15526 132053.488 -0)
(-15153.78309 132329.6019 -0)
(12199.87437 -25902.37789 -0)
(39427.54282 -20608.07572 -0)
(67032.29085 2512.514093 -0)
(82604.70713 43383.31971 -0)
(79537.77912 86222.50326 -0)
(63901.00545 117928.9734 -0)
(45386.10001 136940.3919 -0)
(29542.38024 147228.3136 -0)
(17744.69837 152609.0008 -0)
(9521.713432 155437.0225 -0)
(3464.457513 157098.8769 -0)
(-2058.260053 158320.0006 -0)
(-7703.965466 159276.0437 -0)
(-13457.24188 159954.1331 -0)
(12390.22243 -27639.27628 -0)
(41115 -24017.46272 -0)
(72863.81274 -2158.332971 -0)
(94271.82855 41122.49832 -0)
(95555.92824 90610.74721 -0)
(80848.0827 130060.8074 -0)
(60699.90012 155136.072 -0)
(42397.11294 169349.2628 -0)
(28339.06087 177086.4346 -0)
(18368.05337 181304.3019 -0)
(10942.25852 183866.5437 -0)
(4118.838869 185819.6926 -0)
(-2901.842687 187433.8929 -0)
(-10099.92648 188688.2838 -0)
(12488.26809 -29070.10922 -0)
(42352.58797 -27003.49901 -0)
(77686.4602 -6702.663808 -0)
(104720.9823 37995.28026 -0)
(110930.8666 93152.64015 -0)
(98123.6638 140145.3136 -0)
(77100.41132 171640.8927 -0)
(56736.08614 190237.1202 -0)
(40581.64493 200702.6705 -0)
(28916.22494 206572.4462 -0)
(20130.45465 210225.7519 -0)
(11992.76184 213081.7491 -0)
(3564.089193 215524.6752 -0)
(-5131.631259 217523.4621 -0)
(12525.95343 -30241.33701 -0)
(43245.23026 -29569.98453 -0)
(81604.97007 -10936.05088 -0)
(113829.496 34401.9609 -0)
(125169.3722 94166.38929 -0)
(114997.6638 148147.1516 -0)
(93834.48124 186085.9161 -0)
(71884.96723 209303.5867 -0)
(53891.5525 222740.1569 -0)
(40662.59828 230449.2911 -0)
(30587.57983 235336.9062 -0)
(21181.90297 239228.735 -0)
(11375.94222 242637.7132 -0)
(1196.981873 245520.7963 -0)
(12526.34487 -31196.21753 -0)
(43881.40274 -31745.50871 -0)
(84751.31426 -14756.02716 -0)
(121607.6501 30668.23452 -0)
(137979.8064 94035.03472 -0)
(130901.7489 154233.9517 -0)
(110221.33 198356.5642 -0)
(87167.85591 226216.8551 -0)
(67638.73594 242724.6505 -0)
(53025.9793 252371.6536 -0)
(41776.39942 258576.8894 -0)
(31194.27483 263587.0996 -0)
(20092.51862 268052.1973 -0)
(8501.066913 271916.0122 -0)
(12505.33949 -31972.84021 -0)
(44331.12375 -33570.92274 -0)
(87259.27657 -18122.14241 -0)
(128149.2503 27028.76008 -0)
(149244.5295 93128.08466 -0)
(145459.1252 158688.2692 -0)
(125726.575 208533.3763 -0)
(102000.9331 240874.0227 -0)
(81243.25881 260421.6538 -0)
(65446.87328 272018.0291 -0)
(53161.37069 279563.1055 -0)
(41522.04887 285721.1485 -0)
(29239.47191 291281.129 -0)
(16345.74935 296172.8914 -0)
(12473.45037 -32603.6396 -0)
(44647.47585 -35091.11268 -0)
(89250.68352 -21035.88121 -0)
(133590.5686 23633.53703 -0)
(158974.5827 91757.53761 -0)
(158471.4779 161831.2643 -0)
(139987.619 216819.2317 -0)
(115942.3779 253343.5883 -0)
(94237.89167 275793.7134 -0)
(77455.87186 289277.5323 -0)
(64279.58865 298131.2225 -0)
(51714.40158 305418.5281 -0)
(38383.13296 312064.9848 -0)
(24319.05975 317985.4943 -0)
(12445.42082 -33001.4091 -0)
(44819.85287 -36065.28343 -0)
(90476.59144 -22949.53575 -0)
(137077.128 21299.53773 -0)
(165409.8971 90598.33547 -0)
(167331.0762 163565.6354 -0)
(149937.0868 222008.5368 -0)
(125849.2135 261420.5401 -0)
(103596.6024 285905.0322 -0)
(86190.30836 300724.3498 -0)
(72430.26146 310509.3993 -0)
(59248.09957 318603.7843 -0)
(45208.73097 326030.5664 -0)
(30344.56743 332694.3436 -0)
(12427.26569 -33231.488 -0)
(44912.98033 -36636.5649 -0)
(91178.58044 -24095.44201 -0)
(139107.8705 19847.91779 -0)
(169207.9378 89764.83896 -0)
(172623.9065 164419.1437 -0)
(155942.5881 224968.1698 -0)
(131875.5584 266186.5778 -0)
(109321.4991 291962.2707 -0)
(91555.09833 307636.3706 -0)
(77452.47925 318020.8381 -0)
(63905.00939 326636.7489 -0)
(49444.35465 334569.9596 -0)
(34102.59188 341717.5708 -0)
(12407.18344 -33461.21247 -0)
(44999.12191 -37211.50248 -0)
(91871.17077 -25262.53067 -0)
(141146.6575 18337.86904 -0)
(173072.3039 88832.51306 -0)
(178076.0635 165174.7135 -0)
(162194.1407 227889.1429 -0)
(138198.4914 270994.5224 -0)
(115362.0857 298130.2868 -0)
(97238.6394 314708.8688 -0)
(82790.05983 325730.4169 -0)
(68870.52523 334901.023 -0)
(53977.41922 343374.9473 -0)
(38142.94767 351040.0169 -0)
(12385.15173 -33690.54735 -0)
(45078.10284 -37790.00323 -0)
(92553.70325 -26450.81504 -0)
(143192.1138 16768.2387 -0)
(177002.0911 87796.94498 -0)
(183690.424 165823.7431 -0)
(168700.9158 230762.2233 -0)
(144832.569 275837.9086 -0)
(121735.9443 304406.2512 -0)
(103260.4741 321942.4018 -0)
(88463.02897 333641.4395 -0)
(74164.3565 343401.7925 -0)
(58828.31311 352451.6521 -0)
(42485.74141 360672.0612 -0)
(12361.14851 -33919.45635 -0)
(45149.74771 -38371.97208 -0)
(93225.50304 -27660.30326 -0)
(145242.7801 15137.92616 -0)
(180996.1868 86653.62782 -0)
(189469.688 166357.1581 -0)
(175472.2303 233577.3013 -0)
(151793.0026 280709.3513 -0)
(128461.8592 310787.2512 -0)
(109641.178 329336.9149 -0)
(94492.5604 341755.0131 -0)
(79807.65399 352144.7539 -0)
(64019.15321 361808.4301 -0)
(47153.28679 370623.1405 -0)
(12335.15211 -34147.90281 -0)
(45213.88059 -38957.31018 -0)
(93885.8799 -28890.98692 -0)
(147297.111 13445.86125 -0)
(185053.2537 85397.98167 -0)
(195416.3381 166765.3645 -0)
(182517.5687 236323.3023 -0)
(159095.8167 285600.7045 -0)
(135559.5043 317269.3682 -0)
(116401.9312 336891.991 -0)
(100901.9469 350072.8441 -0)
(85824.34182 361135.0393 -0)
(69572.50277 371453.6007 -0)
(52168.24946 380902.009 -0)
(12307.14118 -34375.84963 -0)
(45270.32521 -39545.91488 -0)
(94534.12854 -30142.8405 -0)
(149353.4733 11691.00801 -0)
(189171.7139 84025.36126 -0)
(201532.6078 167038.2456 -0)
(189846.5479 238988.1787 -0)
(166757.6643 290502.7321 -0)
(143049.9318 323847.2727 -0)
(123565.6763 344607.4364 -0)
(107715.448 358597.586 -0)
(92239.41605 370375.7852 -0)
(75512.58481 381394.311 -0)
(57555.20071 391519.7586 -0)
(12277.09476 -34603.25937 -0)
(45318.90505 -40137.67972 -0)
(95169.52896 -31415.82076 -0)
(151410.1438 9872.368764 -0)
(193349.7312 82531.06614 -0)
(207820.4398 167165.1523 -0)
(197468.8906 241558.7828 -0)
(174795.9177 295405.1176 -0)
(150955.6024 330515.0175 -0)
(131156.9276 352481.5292 -0)
(114958.1043 367331.1493 -0)
(99079.41344 379870.5738 -0)
(81866.58808 391637.9988 -0)
(63340.54021 402488.4617 -0)
(12244.99229 -34830.09414 -0)
(45359.44351 -40732.49434 -0)
(95791.34688 -32709.86609 -0)
(153465.308 7988.988317 -0)
(197585.1943 80910.35232 -0)
(214281.4408 167134.894 -0)
(205394.3986 244020.7825 -0)
(183228.69 300296.3027 -0)
(159300.1328 337265.7164 -0)
(139202.0348 360510.8857 -0)
(122657.0189 376274.9007 -0)
(106372.5441 389624.3911 -0)
(88663.67235 402192.0592 -0)
(69552.54384 413819.0445 -0)
(12210.81363 -35056.31573 -0)
(45391.76403 -41330.24453 -0)
(96398.83421 -34024.89597 -0)
(155517.059 6039.95838 -0)
(201875.6985 79158.44537 -0)
(220916.8315 166935.7323 -0)
(213632.9071 246358.5733 -0)
(192074.8761 305163.2359 -0)
(168108.3567 344091.4974 -0)
(147729.2332 368691.6164 -0)
(130841.7841 385429.27 -0)
(114148.8496 399641.9555 -0)
(95934.48008 413063.8119 -0)
(76221.61523 425522.0972 -0)
(12174.53908 -35281.88552 -0)
(45415.69029 -41930.81215 -0)
(96991.2296 -35360.81038 -0)
(157563.3958 4024.422107 -0)
(206218.5274 77270.55516 -0)
(227727.3923 166555.3757 -0)
(222194.2256 248555.1893 -0)
(201354.1972 309991.2133 -0)
(177406.5579 350983.2517 -0)
(156768.5455 377019.4615 -0)
(139544.2217 394793.6401 -0)
(122440.5465 409926.8935 -0)
(103711.5853 424260.6914 -0)
(83380.44316 437608.8352 -0)
(12136.14937 -35506.76454 -0)
(45431.04631 -42534.07516 -0)
(97567.75902 -36717.48926 -0)
(159602.223 1941.578756 -0)
(210610.6343 75241.89233 -0)
(234713.4033 165980.9783 -0)
(231088.0729 250592.207 -0)
(211087.2099 314763.7524 -0)
(187222.6497 357930.2759 -0)
(166351.8466 385489.2373 -0)
(148798.2685 404366.6082 -0)
(131282.3579 420482.084 -0)
(112030.0429 435790.2853 -0)
(91064.07154 450091.1689 -0)
(12095.62575 -35730.91347 -0)
(45437.65667 -43139.90756 -0)
(98127.63644 -38094.79196 -0)
(161631.3501 -209.3114941 -0)
(215048.6232 73067.68661 -0)
(241874.5797 165199.1422 -0)
(240324.0039 252449.6379 -0)
(221295.2919 319462.423 -0)
(197586.2832 364920.0355 -0)
(176513.1138 394094.4201 -0)
(158640.1837 414146.1645 -0)
(140711.7277 431310.0848 -0)
(120927.6785 447660.2155 -0)
(99310.02782 462981.4438 -0)
(12052.94992 -35954.29263 -0)
(45435.34661 -43748.17939 -0)
(98670.06448 -39492.55668 -0)
(163648.4914 -2428.922633 -0)
(219528.7295 70743.20694 -0)
(249210 164195.925 -0)
(249911.3245 254105.8138 -0)
(232000.6248 324066.6265 -0)
(208528.9446 371938.0274 -0)
(187288.7328 402826.9875 -0)
(169108.8855 424129.5903 -0)
(150768.9792 442413.1809 -0)
(130445.2378 459878.0213 -0)
(108158.5586 476292.3068 -0)
(12008.10414 -36176.86203 -0)
(45423.94226 -44358.75675 -0)
(99194.23527 -40910.60001 -0)
(165651.266 -4717.857864 -0)
(224046.8006 68263.78363 -0)
(256718.0284 162956.8545 -0)
(259858.9901 255537.2698 -0)
(243226.1841 328553.3376 -0)
(220084.0757 378967.6127 -0)
(198717.7695 411677.3045 -0)
(180246.2749 434313.1803 -0)
(161497.521 453793.1961 -0)
(140626.5713 472451.1434 -0)
(117652.9241 490036.7568 -0)
(11961.07117 -36398.58132 -0)
(45403.27081 -44971.50176 -0)
(99699.33123 -42348.7164 -0)
(167637.1989 -7076.644549 -0)
(228598.2772 65624.83248 -0)
(264396.2298 161466.9493 -0)
(270175.4862 256718.6254 -0)
(254995.7218 332896.8137 -0)
(232287.2122 385989.7495 -0)
(210842.2104 420633.9258 -0)
(192097.5398 444691.9594 -0)
(172944.1572 465451.2973 -0)
(151518.9225 485386.9968 -0)
(127839.708 504228.3078 -0)
(11911.83435 -36619.40985 -0)
(45373.16064 -45586.27256 -0)
(100184.526 -43806.67776 -0)
(169603.7219 -9505.729157 -0)
(233178.1749 62821.88079 -0)
(272241.2778 159710.7481 -0)
(280868.6871 257622.4656 -0)
(267333.7353 337068.2697 -0)
(245176.1348 392982.6289 -0)
(223707.2168 429683.3086 -0)
(204711.4863 455259.4749 -0)
(185159.5004 477387.8899 -0)
(163173.321 498693.0851 -0)
(138769.1468 518881.2255 -0)
(11860.3776 -36839.30668 -0)
(45333.44156 -46202.92333 -0)
(100648.9855 -45284.23295 -0)
(171548.1754 -12005.47216 -0)
(237781.0656 59850.59564 -0)
(280248.8556 157672.3491 -0)
(291945.6896 258219.2199 -0)
(280265.4102 341035.513 -0)
(258791.0266 399921.2428 -0)
(237361.4334 438809.4703 -0)
(218140.9426 466007.6445 -0)
(198198.4696 489602.5943 -0)
(175645.0694 512377.1241 -0)
(150495.5049 534010.823 -0)
(11806.68542 -37058.23053 -0)
(45283.94498 -46821.30429 -0)
(101091.8688 -46781.10743 -0)
(173467.8103 -14576.14293 -0)
(242401.0613 56706.81404 -0)
(288413.5488 155335.4591 -0)
(303412.6196 258477.0443 -0)
(293816.5351 344762.535 -0)
(273174.6405 406776.895 -0)
(251857.3728 447993.6052 -0)
(232443.2638 476926.5994 -0)
(212120.8633 502094.2574 -0)
(188994.3217 526447.1594 -0)
(163077.517 549633.8025 -0)
(11750.74296 -37276.13989 -0)
(45224.50408 -47441.2617 -0)
(101512.3293 -48297.00282 -0)
(175359.7914 -17217.91476 -0)
(247031.7979 53386.57513 -0)
(296728.7309 152683.4555 -0)
(315274.4048 258361.7073 -0)
(308013.3823 348209.0533 -0)
(288372.4765 413516.6461 -0)
(267251.8793 457213.6486 -0)
(247680.9499 488004.4546 -0)
(226992.0166 514860.9386 -0)
(203286.7625 540911.6641 -0)
(176578.9154 565768.614 -0)
(11692.53598 -37492.99293 -0)
(45154.95403 -48062.63788 -0)
(101909.516 -49831.59661 -0)
(177221.2003 -19930.85989 -0)
(251666.4216 49886.15446 -0)
(305186.441 149699.4617 -0)
(327534.5109 257836.4871 -0)
(322882.5464 351330.0011 -0)
(304432.9692 420102.656 -0)
(283606.6638 466443.7499 -0)
(263922.3828 499226.9483 -0)
(242883.5651 527899.8186 -0)
(218594.4018 555779.627 -0)
(191069.0763 582435.8033 -0)
(11632.05091 -37708.74758 -0)
(45075.13217 -48685.27123 -0)
(102282.5747 -51384.54184 -0)
(179049.0401 -22714.94468 -0)
(256297.5769 46202.10009 -0)
(313777.2537 146366.4389 -0)
(340194.6355 256862.084 -0)
(338450.7292 354074.9582 -0)
(321407.6785 426491.3865 -0)
(300988.8999 475653.6026 -0)
(281242.6866 510576.9134 -0)
(259874.363 541207.0024 -0)
(234996.5096 571060.696 -0)
(206623.8417 599658.3897 -0)
(11569.27488 -37923.36153 -0)
(44984.87825 -49308.99626 -0)
(102630.6491 -52955.46677 -0)
(180840.2398 -25570.02496 -0)
(260917.3976 42331.27059 -0)
(322490.1435 142667.2934 -0)
(353254.3529 255396.5558 -0)
(354744.4504 356387.5176 -0)
(339351.4695 432632.6201 -0)
(319471.8783 484807.5862 -0)
(299724.7294 522033.5934 -0)
(278051.6373 554777.2281 -0)
(252580.7453 586765.4786 -0)
(223326.5865 617462.4023 -0)
(11504.19569 -38136.79223 -0)
(44884.03455 -49933.64358 -0)
(102952.8825 -54543.97471 -0)
(182591.6606 -28495.84149 -0)
(265517.5011 38270.87478 -0)
(331312.3414 138585.0045 -0)
(366710.704 253395.2849 -0)
(371789.664 358204.5855 -0)
(358322.6654 438468.2657 -0)
(339135.7372 493863.6811 -0)
(319460.3027 533571.8524 -0)
(297512.4789 568603.5124 -0)
(271444.573 602906.0375 -0)
(241269.5686 635877.7463 -0)
(11436.8019 -38348.9969 -0)
(44772.44618 -50559.04 -0)
(103248.4189 -56149.64375 -0)
(184300.1016 -31492.01577 -0)
(270088.9855 34018.51283 -0)
(340229.1891 134102.7706 -0)
(380557.7238 250810.9878 -0)
(389611.2513 359455.6134 -0)
(378383.1514 443930.9273 -0)
(360068.3084 502772.1138 -0)
(340551.5278 545161.2922 -0)
(318365.7435 582676.738 -0)
(291697.1004 619496.4296 -0)
(260555.5499 654939.5056 -0)
(11367.08276 -38559.93257 -0)
(44649.96123 -51185.00851 -0)
(103516.4048 -57772.02666 -0)
(185962.3077 -34558.0461 -0)
(274622.4332 29572.21872 -0)
(349223.9898 129204.1788 -0)
(394785.8995 247593.7817 -0)
(408232.3627 360061.7677 -0)
(399598.3995 448942.2121 -0)
(382366.119 511473.641 -0)
(363112.5519 556765.1495 -0)
(340734.3702 596985.1342 -0)
(313461.4926 636553.0178 -0)
(281299.6999 674689.6582 -0)
(11295.02835 -38769.55607 -0)
(44516.43097 -51811.36836 -0)
(103755.9902 -59410.65078 -0)
(187574.9776 -37693.30391 -0)
(279107.9173 24930.50362 -0)
(358277.8593 123873.3966 -0)
(409381.5511 243691.324 -0)
(427673.5711 359935.0476 -0)
(422037.3606 453410.7312 -0)
(406135.5443 519897.3334 -0)
(387271.6104 568338.6819 -0)
(364758.1052 611513.5819 -0)
(336878.1093 654094.4686 -0)
(303631.9819 695179.0623 -0)
(11220.62947 -38977.82406 -0)
(44371.7101 -52437.93509 -0)
(103966.3308 -61065.01791 -0)
(189134.7727 -40897.03055 -0)
(283535.0158 20092.39995 -0)
(367369.5814 118095.3888 -0)
(424326.128 239049.0451 -0)
(447951.7945 358977.3687 -0)
(445772.1468 457229.7149 -0)
(431494.0408 527957.7032 -0)
(413173.5662 579826.7209 -0)
(390596.7562 626242.6193 -0)
(362108.4777 672141.8216 -0)
(327700.4892 716469.5262 -0)
(11143.87775 -39184.69304 -0)
(44215.65694 -53064.52061 -0)
(104146.5892 -62734.60435 -0)
(190638.3272 -44168.33443 -0)
(287892.8317 15057.50536 -0)
(376475.4717 111856.1595 -0)
(439595.4171 233610.4959 -0)
(469078.9295 357079.6475 -0)
(470877.4015 460274.1402 -0)
(458571.3412 535551.0489 -0)
(440983.0367 591160.2452 -0)
(418434.38 641146.8227 -0)
(389340.2115 690719.2432 -0)
(353676.2101 738635.992 -0)
(11064.76566 -39390.11936 -0)
(44048.13361 -53690.93325 -0)
(104295.9368 -64418.86093 -0)
(192082.2589 -47506.18866 -0)
(292170.0211 9826.026574 -0)
(385569.256 105143.0207 -0)
(455158.6566 227317.8337 -0)
(491060.1202 354120.9483 -0)
(497429.2362 462397.2793 -0)
(487510.5208 542550.857 -0)
(470888.1019 602252.0362 -0)
(448484.9683 656191.9578 -0)
(418793.1955 709855.3921 -0)
(381759.2896 761769.5783 -0)
(10983.28647 -39594.05927 -0)
(43869.00631 -54316.97786 -0)
(104413.5551 -66117.21316 -0)
(193463.1808 -50909.42929 -0)
(296354.829 4398.821884 -0)
(394621.9704 97944.88722 -0)
(470977.5614 220112.4732 -0)
(513891.5761 349967.7845 -0)
(525503.572 463426.6255 -0)
(518468.9059 548801.9077 -0)
(503104.4315 612991.3234 -0)
(480999.9543 671330.4808 -0)
(450727.9293 729583.9807 -0)
(412186.6326 785982.8908 -0)
(10899.43434 -39796.46891 -0)
(43678.14543 -54942.4559 -0)
(104498.6377 -67829.06144 -0)
(194777.7139 -54376.75401 -0)
(300435.1357 -1222.557896 -0)
(403601.8901 90252.59795 -0)
(487005.2671 211935.9281 -0)
(537557.8413 344473.7037 -0)
(555173.6203 463159.2103 -0)
(551618.7568 554112.495 -0)
(537879.769 623236.5063 -0)
(516277.3387 686495.7759 -0)
(485457.4164 749941.9247 -0)
(445241.6852 811417.9237 -0)
(10813.2043 -39997.30433 -0)
(43475.42585 -55567.1655 -0)
(104550.3921 -69553.78133 -0)
(196022.5004 -57906.7216 -0)
(304398.5122 -7035.831232 -0)
(412474.4993 82059.26158 -0)
(503185.2142 202730.8756 -0)
(562028.4152 337479.3095 -0)
(586506.0933 461356.3718 -0)
(587147.3089 558244.2664 -0)
(575499.1983 632803.9798 -0)
(554672.3525 701595.3478 -0)
(523363.4514 770965.9941 -0)
(481269.0749 838254.2188 -0)
(10724.59226 -40196.52153 -0)
(43260.72709 -56190.90164 -0)
(104568.0412 -71290.72401 -0)
(197194.2177 -61497.75219 -0)
(308232.2874 -13037.95146 -0)
(421202.5106 73360.62257 -0)
(519450.0049 192442.4739 -0)
(587253.6268 328812.909 -0)
(619555.6566 457738.0641 -0)
(625255.1406 560899.6272 -0)
(616291.6441 641451.2708 -0)
(596611.1324 716499.7962 -0)
(564917.2129 792691.1005 -0)
(520696.7272 866716.5308 -0)
(10633.59508 -40394.07647 -0)
(43033.93351 -56813.45623 -0)
(104550.8249 -73039.21678 -0)
(198289.5937 -65148.12849 -0)
(311923.6264 -19225.07728 -0)
(429745.9494 64155.44148 -0)
(535720.2787 181019.9661 -0)
(613159.6616 318292.0294 -0)
(654357.1381 451976.9325 -0)
(666151.5064 561706.4969 -0)
(660636.3347 648854.9764 -0)
(642610.1935 731021.0242 -0)
(610706.4177 815147.7703 -0)
(564065.6058 897088.8891 -0)
(10540.2105 -40589.92511 -0)
(42794.93455 -57434.61831 -0)
(104498.0022 -74798.56385 -0)
(199305.4219 -68855.9983 -0)
(315459.6214 -25592.55014 -0)
(438062.3176 54445.8785 -0)
(551903.6767 168418.6051 -0)
(639642.6709 305726.1306 -0)
(690914.84 443692.8602 -0)
(710045.804 560198.7087 -0)
(708965.9471 654584.501 -0)
(693301.4638 744878.6376 -0)
(661476.7602 838346.1892 -0)
(612069.8497 929737.6875 -0)
(10444.43725 -40784.02341 -0)
(42543.62485 -58054.17418 -0)
(104408.8525 -76568.04722 -0)
(200238.577 -72619.37891 -0)
(318827.3939 -32134.88253 -0)
(446106.852 44237.85794 -0)
(567893.9898 154601.8989 -0)
(666561.9965 290920.8822 -0)
(729187.6838 432449.475 -0)
(757134.3314 555790.3191 -0)
(761765.3704 658064.5116 -0)
(749457.7493 757660.0134 -0)
(718192.0303 862244.2447 -0)
(665620.8093 965132.2667 -0)
(-3985.302221 858.1020063 -0)
(-4007.187963 856.2826606 -0)
(-4029.026503 854.4088908 -0)
(-4050.816518 852.4807533 -0)
(-4072.556621 850.4983158 -0)
(-4094.245428 848.4616574 -0)
(-4115.881555 846.3708691 -0)
(-4137.463621 844.226053 -0)
(-4158.990249 842.0273225 -0)
(-4180.460064 839.7748027 -0)
(-4201.871694 837.4686296 -0)
(-4223.223772 835.1089505 -0)
(-4244.514933 832.6959237 -0)
(-4265.743817 830.2297187 -0)
(-4286.90907 827.7105158 -0)
(-4308.00934 825.1385062 -0)
(-4329.043282 822.5138918 -0)
(-4350.009554 819.8368854 -0)
(-4370.906823 817.1077101 -0)
(-4391.733759 814.3265997 -0)
(-4412.489038 811.4937983 -0)
(-4433.171345 808.6095603 -0)
(-4239.960411 2661.517957 -0)
(-4269.582781 2656.196871 -0)
(-4299.150945 2650.669956 -0)
(-4328.661781 2644.937563 -0)
(-4358.112258 2639.000091 -0)
(-4387.499357 2632.85799 -0)
(-4416.820066 2626.511764 -0)
(-4446.071387 2619.961961 -0)
(-4475.25033 2613.209185 -0)
(-4504.353918 2606.254084 -0)
(-4533.379187 2599.097359 -0)
(-4562.323188 2591.739758 -0)
(-4591.182983 2584.182077 -0)
(-4619.955653 2576.42516 -0)
(-4648.638293 2568.469899 -0)
(-4677.228016 2560.317233 -0)
(-4705.721952 2551.968147 -0)
(-4734.117249 2543.423671 -0)
(-4762.411075 2534.684883 -0)
(-4790.600618 2525.752902 -0)
(-4818.683087 2516.628894 -0)
(-4846.655711 2507.31407 -0)
(-4636.191909 4831.233354 -0)
(-4683.340004 4822.100661 -0)
(-4730.402201 4812.467441 -0)
(-4777.370905 4802.335062 -0)
(-4824.238548 4791.705052 -0)
(-4870.997594 4780.579092 -0)
(-4917.640545 4768.959018 -0)
(-4964.159946 4756.84682 -0)
(-5010.548383 4744.244638 -0)
(-5056.798489 4731.154765 -0)
(-5102.902945 4717.579641 -0)
(-5148.854484 4703.521856 -0)
(-5194.645893 4688.984142 -0)
(-5240.270016 4673.96938 -0)
(-5285.719756 4658.480589 -0)
(-5330.988079 4642.520931 -0)
(-5376.068015 4626.093705 -0)
(-5420.952663 4609.202348 -0)
(-5465.635189 4591.850431 -0)
(-5510.108834 4574.041656 -0)
(-5554.366915 4555.779856 -0)
(-5598.402823 4537.06899 -0)
(-5149.78679 7748.327338 -0)
(-5229.84492 7733.426735 -0)
(-5309.721368 7717.43216 -0)
(-5389.397455 7700.347848 -0)
(-5468.854616 7682.178484 -0)
(-5548.074402 7662.929204 -0)
(-5627.038489 7642.605589 -0)
(-5705.728688 7621.21366 -0)
(-5784.126951 7598.759876 -0)
(-5862.215382 7575.251126 -0)
(-5939.976248 7550.694727 -0)
(-6017.391984 7525.098417 -0)
(-6094.445208 7498.470347 -0)
(-6171.118722 7470.81908 -0)
(-6247.395531 7442.153579 -0)
(-6323.258844 7412.483203 -0)
(-6398.692086 7381.817699 -0)
(-6473.67891 7350.167193 -0)
(-6548.2032 7317.542185 -0)
(-6622.249082 7283.953538 -0)
(-6695.800934 7249.41247 -0)
(-6768.843392 7213.930545 -0)
(-5831.37138 11803.36768 -0)
(-5968.606758 11778.15889 -0)
(-6105.431431 11750.69301 -0)
(-6241.800994 11720.98105 -0)
(-6377.671296 11689.03528 -0)
(-6512.998517 11654.86923 -0)
(-6647.739192 11618.49768 -0)
(-6781.850247 11579.93665 -0)
(-6915.289028 11539.20336 -0)
(-7048.013328 11496.31626 -0)
(-7179.981421 11451.29498 -0)
(-7311.15209 11404.16032 -0)
(-7441.484668 11354.93421 -0)
(-7570.939056 11303.63974 -0)
(-7699.475768 11250.3011 -0)
(-7827.055954 11194.94353 -0)
(-7953.641432 11137.59338 -0)
(-8079.19472 11078.27798 -0)
(-8203.679063 11017.02568 -0)
(-8327.058461 10953.8658 -0)
(-8449.297696 10888.82861 -0)
(-8570.362355 10821.94527 -0)
(-6777.986997 17413.96806 -0)
(-7009.743019 17370.63659 -0)
(-7240.628241 17322.83435 -0)
(-7470.539783 17270.58611 -0)
(-7699.375559 17213.92009 -0)
(-7927.034301 17152.86791 -0)
(-8153.415647 17087.4646 -0)
(-8378.420234 17017.74855 -0)
(-8601.949803 16943.76145 -0)
(-8823.9073 16865.5483 -0)
(-9044.196984 16783.15732 -0)
(-9262.724538 16696.63989 -0)
(-9479.397181 16606.0505 -0)
(-9694.123771 16511.44671 -0)
(-9906.814917 16412.88901 -0)
(-10117.38308 16310.4408 -0)
(-10325.74267 16204.16826 -0)
(-10531.81015 16094.14029 -0)
(-10735.50411 15980.42842 -0)
(-10936.74538 15863.10666 -0)
(-11135.45706 15742.25147 -0)
(-11331.56466 15617.94159 -0)
(-8092.888957 25024.37151 -0)
(-8475.175735 24951.95669 -0)
(-8855.796938 24870.98376 -0)
(-9234.521966 24781.50088 -0)
(-9611.121766 24683.56514 -0)
(-9985.368949 24577.2426 -0)
(-10357.03807 24462.6082 -0)
(-10725.90596 24339.74575 -0)
(-11091.75203 24208.74778 -0)
(-11454.35871 24069.71545 -0)
(-11813.51173 23922.75844 -0)
(-12169.00056 23767.99472 -0)
(-12520.61874 23605.55041 -0)
(-12868.16424 23435.55958 -0)
(-13211.43979 23258.16398 -0)
(-13550.25319 23073.51281 -0)
(-13884.41763 22881.76247 -0)
(-14213.75194 22683.07628 -0)
(-14538.08086 22477.62415 -0)
(-14857.2353 22265.58233 -0)
(-15171.05252 22047.13304 -0)
(-15479.37639 21822.46415 -0)
(-9836.679179 35090.63302 -0)
(-10450.80621 34976.7715 -0)
(-11062.1119 34847.06879 -0)
(-11670.09839 34701.6022 -0)
(-12274.26988 34540.47128 -0)
(-12874.13296 34363.79792 -0)
(-13469.19758 34171.7263 -0)
(-14058.97813 33964.42285 -0)
(-14642.99462 33742.07599 -0)
(-15220.77389 33504.89591 -0)
(-15791.85079 33253.11414 -0)
(-16355.76928 32986.98314 -0)
(-16912.08355 32706.77577 -0)
(-17460.35897 32412.78474 -0)
(-18000.17303 32105.32197 -0)
(-18531.11623 31784.71788 -0)
(-19052.79288 31451.32068 -0)
(-19564.82183 31105.49557 -0)
(-20066.83721 30747.6239 -0)
(-20558.48905 30378.10226 -0)
(-21039.44393 29997.34159 -0)
(-21509.3855 29605.7662 -0)
(-11978.66201 48043.00237 -0)
(-12937.67022 47878.2046 -0)
(-13892.57026 47685.13956 -0)
(-14842.33594 47463.8944 -0)
(-15785.93917 47214.60833 -0)
(-16722.35251 46937.47322 -0)
(-17650.55249 46632.73388 -0)
(-18569.52336 46300.68787 -0)
(-19478.26063 45941.68519 -0)
(-20375.77456 45556.12755 -0)
(-21261.09328 45144.46762 -0)
(-22133.26567 44707.20795 -0)
(-22991.36406 44244.89978 -0)
(-23834.48674 43758.14171 -0)
(-24661.76029 43247.57813 -0)
(-25472.34184 42713.89751 -0)
(-26265.42124 42157.8305 -0)
(-27040.22302 41580.14786 -0)