/*--------------------------------*- C++ -*----------------------------------*\
| =========                 |                                                 |
| \\      /  F ield         | OpenFOAM: The Open Source CFD Toolbox           |
|  \\    /   O peration     | Version:  2406                                  |
|   \\  /    A nd           | Website:  www.openfoam.com                      |
|    \\/     M anipulation  |                                                 |
\*---------------------------------------------------------------------------*/
FoamFile
{
    version     2.0;
    format      ascii;
    arch        "LSB;label=32;scalar=64";
    class       volScalarField;
    location    "7e-05/encapsulator";
    object      voltExtAmp;
}
// * * * * * * * * * * * * * * * * * * * * * * * * * * * * * * * * * * * * * //

dimensions      [1 2 -3 0 0 -1 0];

internalField   nonuniform List<scalar> 
26298
(
-961.4151878
-946.0368604
-928.4785223
-913.6443754
-902.5471724
-894.7346993
-889.4146927
-885.8611391
-883.5148603
-881.9767285
-880.8827334
-879.9072993
-878.9258015
-877.9382525
-983.1499005
-971.6613917
-956.3477613
-942.2700008
-931.246301
-923.2837062
-917.7794982
-914.0694939
-911.6062076
-909.9857107
-908.8305749
-907.7988354
-906.758901
-905.7107847
-1011.597289
-1010.104262
-1001.208377
-989.8237207
-979.6128028
-971.7269381
-966.0738424
-962.1825658
-959.566092
-957.8313653
-956.5887502
-955.4746537
-954.3475214
-953.2073706
-1035.677527
-1053.122658
-1057.572231
-1052.43167
-1044.569546
-1037.362504
-1031.773867
-1027.763757
-1025.002614
-1023.145798
-1021.804059
-1020.592996
-1019.359776
-1018.104431
-1048.109457
-1094.844526
-1122.202285
-1128.673714
-1125.592623
-1120.048827
-1114.887456
-1110.874197
-1107.992812
-1106.008544
-1104.554236
-1103.2275
-1101.862709
-1100.459937
-1045.507102
-1130.686247
-1192.217066
-1217.59175
-1222.809998
-1220.390167
-1216.197441
-1212.35154
-1209.383283
-1207.260691
-1205.671298
-1204.198488
-1202.661299
-1201.059875
-1028.029444
-1157.114341
-1264.044122
-1317.403434
-1335.785899
-1338.627069
-1336.229665
-1332.82764
-1329.838648
-1327.572507
-1325.822271
-1324.164984
-1322.401411
-1320.531794
-998.3839946
-1171.971167
-1333.29505
-1424.853729
-1462.779646
-1473.947855
-1474.629248
-1472.153355
-1469.298885
-1466.921845
-1465.002371
-1463.130857
-1461.08875
-1458.876345
-960.5180607
-1174.827277
-1395.465384
-1535.247961
-1600.441223
-1624.113664
-1629.799209
-1629.064691
-1626.668945
-1624.300728
-1622.254163
-1620.17548
-1617.831288
-1615.221689
-918.4632488
-1166.913261
-1446.984193
-1643.110647
-1743.950785
-1785.368376
-1798.738772
-1801.006527
-1799.644864
-1797.547352
-1795.505534
-1793.298145
-1790.691178
-1787.68388
-875.6056269
-1150.596928
-1485.994387
-1743.226632
-1887.599056
-1952.676642
-1977.117256
-1984.136182
-1984.687831
-1983.307617
-1981.52526
-1979.370312
-1976.635597
-1973.318117
-834.3963998
-1128.681788
-1512.500252
-1831.638297
-2025.671013
-2120.288879
-2159.621908
-2173.551772
-2177.189085
-2177.165722
-2176.032669
-2174.229097
-2171.616429
-2168.186993
-796.3702522
-1103.818131
-1527.949461
-1906.204751
-2153.353597
-2282.521062
-2340.55642
-2363.762346
-2371.860815
-2373.987473
-2374.009596
-2372.963237
-2370.832246
-2367.600659
-762.3159021
-1078.160728
-1534.569957
-1966.589136
-2267.362729
-2434.522792
-2514.548383
-2549.308929
-2563.2896
-2568.427708
-2570.175088
-2570.359013
-2569.145958
-2566.507031
-732.4858822
-1053.258665
-1534.763485
-2013.826181
-2366.129698
-2572.809355
-2677.174481
-2725.387251
-2746.534597
-2755.504664
-2759.539978
-2761.435531
-2761.599398
-2759.984609
-706.7853564
-1030.096462
-1530.703087
-2049.740338
-2449.591628
-2695.442566
-2825.340556
-2888.305831
-2917.611111
-2931.089388
-2937.895777
-2941.930057
-2943.892158
-2943.712102
-684.9182041
-1009.204952
-1524.142964
-2076.430464
-2518.762151
-2801.894511
-2957.365913
-3035.693713
-3073.762259
-3092.210336
-3102.138218
-3108.635194
-3112.729169
-3114.323166
-666.4895412
-990.7864233
-1516.381841
-2095.917721
-2575.26691
-2892.719937
-3072.824319
-3166.461218
-3213.493133
-3237.131133
-3250.373352
-3259.527999
-3265.97049
-3269.574259
-651.0723639
-974.8254339
-1508.311497
-2109.958502
-2620.96169
-2969.175003
-3172.25011
-3280.590696
-3336.422415
-3365.24216
-3381.836942
-3393.713464
-3402.597966
-3408.3332
-638.2477627
-961.1752493
-1500.498776
-2119.979867
-2657.674218
-3032.878252
-3256.813017
-3378.850809
-3443.032764
-3476.837614
-3496.691286
-3511.239307
-3522.548486
-3530.430874
-630.0024266
-952.2042509
-1494.887132
-2125.498496
-2680.487701
-3073.774987
-3312.102414
-3443.800186
-3513.963306
-3551.379566
-3573.613653
-3590.127793
-3603.237703
-3612.732159
-625.1885551
-946.9203577
-1491.468636
-2128.491227
-2693.600151
-3097.616586
-3344.590277
-3482.14546
-3555.959087
-3595.589876
-3619.288609
-3637.016077
-3651.241114
-3661.738255
-620.3412635
-941.5531531
-1487.882029
-2131.268745
-2706.584419
-3121.575439
-3377.50587
-3521.186788
-3598.843499
-3640.816583
-3666.069674
-3685.08866
-3700.504937
-3712.077369
-615.4606058
-936.1021123
-1484.124233
-2133.82247
-2719.42582
-3145.6367
-3410.842928
-3560.929843
-3642.632465
-3687.083032
-3713.985984
-3734.37956
-3751.068162
-3763.793716
-610.5466413
-930.5667241
-1480.192165
-2136.14366
-2732.109023
-3169.784241
-3444.593792
-3601.379255
-3687.341445
-3734.412694
-3763.066967
-3784.923513
-3802.970794
-3816.933089
-605.5994344
-924.9464915
-1476.082743
-2138.223416
-2744.618036
-3194.000578
-3478.749258
-3642.538551
-3732.985515
-3782.828899
-3813.34208
-3836.756194
-3856.254251
-3871.542445
-600.6190552
-919.240932
-1471.792886
-2140.052683
-2756.936194
-3218.266794
-3513.298448
-3684.409993
-3779.578997
-3832.354996
-3864.841248
-3889.913831
-3910.960956
-3927.670123
-595.605579
-913.4495783
-1467.319521
-2141.622262
-2769.046154
-3242.562463
-3548.228655
-3726.994422
-3827.135416
-3883.01426
-3917.594701
-3944.433011
-3967.134408
-3985.366305
-590.5590865
-907.5719791
-1462.65958
-2142.92281
-2780.929886
-3266.865574
-3583.52518
-3770.291101
-3875.667366
-3934.829539
-3971.632919
-4000.351003
-4024.819191
-4044.682839
-585.4796641
-901.607699
-1457.810005
-2143.944846
-2792.568667
-3291.152447
-3619.171147
-3814.297511
-3925.186369
-3987.823123
-4026.986528
-4057.705843
-4084.060953
-4105.673083
-580.3674037
-895.55632
-1452.767754
-2144.678765
-2803.943079
-3315.397657
-3655.147321
-3859.00912
-3975.702731
-4042.016729
-4083.686133
-4116.536173
-4144.906406
-4168.391966
-575.222403
-889.417441
-1447.529799
-2145.114839
-2815.033007
-3339.573952
-3691.431896
-3904.419135
-4027.225328
-4097.43141
-4141.762181
-4176.881083
-4207.40336
-4232.896105
-570.0447651
-883.1906794
-1442.09313
-2145.243227
-2825.81764
-3363.652171
-3728.000279
-3950.518232
-4079.761351
-4154.087376
-4201.244869
-4238.780051
-4271.600733
-4299.243891
-564.8345991
-876.8756709
-1436.454761
-2145.053987
-2836.275475
-3387.601168
-3764.824852
-3997.294259
-4133.316032
-4212.003784
-4262.164061
-4302.272912
-4337.54855
-4367.495531
-559.5920197
-870.4720706
-1430.611729
-2144.537083
-2846.384328
-3411.387728
-3801.874723
-4044.731904
-4187.892348
-4271.198509
-4324.549162
-4367.399808
-4405.297923
-4437.713093
-554.3171476
-863.9795532
-1424.561102
-2143.682397
-2856.121338
-3434.976499
-3839.115453
-4092.812322
-4243.490692
-4331.687909
-4388.428959
-4434.201102
-4474.901038
-4509.960563
-549.0101093
-857.3978137
-1418.299977
-2142.479739
-2865.462986
-3458.329909
-3876.508772
-4141.512716
-4300.108506
-4393.486531
-4453.831412
-4502.717277
-4546.411162
-4584.303938
-543.6710372
-850.7265682
-1411.825487
-2140.918861
-2874.385113
-3481.408111
-3914.012269
-4190.805873
-4357.739842
-4456.606796
-4520.78343
-4572.988816
-4619.882665
-4660.811351
-538.3000698
-843.9655541
-1405.134802
-2138.98947
-2882.86294
-3504.168912
-3951.579078
-4240.659637
-4416.374871
-4521.058606
-4589.310625
-4645.056089
-4695.371057
-4739.553249
-532.8973515
-837.1145309
-1398.225135
-2136.681239
-2890.871097
-3526.567726
-3989.157531
-4291.036325
-4475.999305
-4586.848911
-4659.437036
-4718.959243
-4772.933045
-4820.602624
-527.4630328
-830.1732808
-1391.093745
-2133.983824
-2898.383654
-3548.557528
-4026.690809
-4341.892071
-4536.593736
-4653.9812
-4731.18482
-4794.738085
-4852.626602
-4904.035286
-521.9972703
-823.1416091
-1383.737936
-2130.886877
-2905.374157
-3570.088826
-4064.116568
-4393.176091
-4598.132875
-4722.454909
-4804.57387
-4872.431944
-4934.511051
-4989.930199
-516.5002267
-816.0193451
-1376.155069
-2127.380063
-2911.815674
-3591.109641
-4101.366564
-4444.82986
-4660.584657
-4792.264717
-4879.621351
-4952.079493
-5018.64717
-5078.369866
-510.9720709
-808.8063421
-1368.342556
-2123.453078
-2917.680838
-3611.565512
-4138.366261
-4496.786195
-4723.909195
-4863.399701
-4956.341124
-5033.71853
-5105.097363
-5169.440817
-505.4129781
-801.5024787
-1360.297872
-2119.095662
-2922.941904
-3631.399511
-4175.034441
-4548.968228
-4788.057535
-4935.842324
-5034.743044
-5117.3857
-5193.925916
-5263.23425
-499.8231295
-794.1076585
-1352.018554
-2114.29762
-2927.570807
-3650.552292
-4211.282823
-4601.288265
-4852.970195
-5009.567196
-5114.832134
-5203.11615
-5285.19932
-5359.846896
-494.2027128
-786.6218115
-1343.502206
-2109.048838
-2931.539232
-3668.962158
-4247.015687
-4653.646521
-4918.575432
-5084.539555
-5196.607565
-5290.943102
-5378.986618
-5459.382157
-488.5519218
-779.044894
-1334.746502
-2103.339304
-2934.818682
-3686.565157
-4282.129534
-4705.929718
-4984.787194
-5160.71339
-5280.06135
-5380.897308
-5475.359728
-5561.951547
-482.8709568
-771.3768895
-1325.749192
-2097.159124
-2937.380558
-3703.295222
-4316.51278
-4758.009555
-5051.502697
-5238.029085
-5365.176619
-5473.006333
-5574.393809
-5667.676439
-477.1600242
-763.6178091
-1316.5081
-2090.498546
-2939.196248
-3719.084333
-4350.045514
-4809.74104
-5118.599544
-5316.41048
-5451.925322
-5567.293536
-5676.167806
-5776.690134
-471.419337
-755.767692
-1307.021137
-2083.347975
-2940.237212
-3733.862732
-4382.599337
-4860.960714
-5185.932293
-5395.761182
-5540.265231
-5663.776529
-5780.765208
-5889.140494
-465.6491144
-747.8266059
-1297.286295
-2075.697996
-2940.475087
-3747.559179
-4414.037307
-4911.484779
-5253.328395
-5475.959903
-5630.136093
-5762.464852
-5888.274763
-6005.19356
-459.849582
-739.7946478
-1287.301658
-2067.539394
-2939.881786
-3760.101253
-4444.214019
-4961.107196
-5320.583401
-5556.854515
-5721.454515
-5863.356748
-5998.790692
-6125.038473
-454.0209718
-731.6719442
-1277.065401
-2058.863171
-2938.429608
-3771.415707
-4472.975867
-5009.597829
-5387.455376
-5638.254438
-5814.106864
-5966.434865
-6112.41243
-6248.893472
-448.1635224
-723.4586516
-1266.575794
-2049.660573
-2936.091352
-3781.428884
-4500.161503
-5056.700723
-5453.658455
-5719.921025
-5907.939253
-6071.659829
-6229.24435
-6377.013038
-442.2774785
-715.1549569
-1255.831209
-2039.923102
-2932.840433
-3790.067179
-4525.602563
-5102.132692
-5518.855535
-5801.555523
-6002.744029
-6178.959604
-6349.394761
-6509.697984
-436.3630913
-706.7610781
-1244.830119
-2029.64254
-2928.651005
-3797.257562
-4549.124691
-5145.582388
-5582.650243
-5882.783761
-6098.242125
-6288.213297
-6472.970999
-6647.309313
-876.9898286
-876.0815884
-875.1683795
-874.2502128
-873.3270993
-872.3990507
-871.4660787
-870.5281954
-869.5854134
-868.6377453
-867.6852043
-866.7278036
-865.7655571
-864.7984786
-863.8265826
-862.8498836
-861.8683966
-860.8821367
-859.8911195
-858.8953608
-857.8948769
-856.889684
-904.7025136
-903.7355171
-902.7617942
-901.7813576
-900.7942206
-899.8003974
-898.7999027
-897.792752
-896.7789612
-895.7585473
-894.7315276
-893.6979204
-892.6577443
-891.611019
-890.5577645
-889.4980016
-888.4317518
-887.3590371
-886.2798803
-885.1943048
-884.1023346
-883.0039943
-952.1066371
-951.0475947
-949.9778462
-948.8974119
-947.806314
-946.7045762
-945.5922241
-944.469285
-943.3357878
-942.191763
-941.037243
-939.8722617
-938.6968546
-937.511059
-936.3149137
-935.1084591
-933.8917373
-932.6647919
-931.4276679
-930.1804122
-928.923073
-927.6557
-1016.885068
-1015.705554
-1014.507865
-1013.292044
-1012.058139
-1010.806201
-1009.536287
-1008.248457
-1006.942774
-1005.619308
-1004.278131
-1002.919319
-1001.542953
-1000.149116
-998.7378987
-997.3093912
-995.8636901
-994.4008948
-992.9211088
-991.4244388
-989.9109956
-988.380893
-1099.084758
-1097.743829
-1096.371755
-1094.968633
-1093.534573
-1092.069692
-1090.574119
-1089.047992
-1087.49146
-1085.904679
-1084.287817
-1082.641051
-1080.964566
-1079.258558
-1077.52323
-1075.758796
-1073.965478
-1072.143505
-1070.293116
-1068.41456
-1066.50809
-1064.57397
-1199.470102
-1197.903268
-1196.283855
-1194.612073
-1192.888155
-1191.112357
-1189.284958
-1187.406259
-1185.476585
-1183.496282
-1181.465718
-1179.385283
-1177.255389
-1175.076466
-1172.848969
-1170.573369
-1168.250158
-1165.879849
-1163.462972
-1161.000075
-1158.491724
-1155.938503
-1318.646243
-1316.76342
-1314.79389
-1312.738058
-1310.59638
-1308.369366
-1306.057576
-1303.661622
-1301.182164
-1298.619916
-1295.975638
-1293.250138
-1290.444274
-1287.558948
-1284.595108
-1281.553748
-1278.435902
-1275.242649
-1271.975106
-1268.63443
-1265.221817
-1261.738497
-1456.602386
-1454.296843
-1451.852019
-1449.268611
-1446.547429
-1443.689397
-1440.69555
-1437.567035
-1434.305106
-1430.911128
-1427.386572
-1423.733014
-1419.952132
-1416.045703
-1412.015605
-1407.863806
-1403.59237
-1399.203446
-1394.699269
-1390.082156
-1385.354502
-1380.518773
-1612.477787
-1609.646181
-1606.597027
-1603.331376
-1599.850511
-1596.155949
-1592.249442
-1588.132971
-1583.808749
-1579.279216
-1574.547034
-1569.615083
-1564.486458
-1559.164463
-1553.652601
-1547.954572
-1542.074263
-1536.015744
-1529.783253
-1523.381195
-1516.814127
-1510.086754
-1784.43104
-1781.00258
-1777.244454
-1773.157968
-1768.744886
-1764.007436
-1758.948309
-1753.570657
-1747.878091
-1741.874674
-1735.564914
-1728.953755
-1722.046568
-1714.849138
-1707.367651
-1699.608683
-1691.579179
-1683.286441
-1674.738105
-1665.942128
-1656.906761
-1647.640531
-1969.593377
-1965.562289
-1961.047767
-1956.050924
-1950.57373
-1944.619018
-1938.190489
-1931.292711
-1923.931115
-1916.111986
-1907.842449
-1899.130461
-1889.984788
-1880.414989
-1870.431387
-1860.045045
-1849.267729
-1838.111879
-1826.590565
-1814.717449
-1802.506739
-1789.973144
-2164.128256
-2159.579923
-2154.347176
-2148.429912
-2141.829513
-2134.548871
-2126.592397
-2117.966026
-2108.677216
-2098.734953
-2088.149731
-2076.933543
-2065.099854
-2052.663564
-2039.640968
-2026.0497
-2011.908672
-1997.238008
-1982.058964
-1966.393852
-1950.265944
-1933.699383
-2363.452868
-2358.57416
-2352.761565
-2346.011953
-2338.324603
-2329.701231
-2320.146019
-2309.665654
-2298.269379
-2285.969007
-2272.778924
-2258.716064
-2243.79989
-2228.052338
-2211.497739
-2194.162725
-2176.07613
-2157.268866
-2137.773795
-2117.625566
-2096.860454
-2075.516186
-2562.603232
-2557.670092
-2551.509432
-2544.112454
-2535.47397
-2525.592434
-2514.470027
-2502.112828
-2488.530979
-2473.738722
-2457.754377
-2440.600335
-2422.303069
-2402.893077
-2382.40474
-2360.876165
-2338.34905
-2314.86852
-2290.482893
-2265.243387
-2239.203844
-2212.420442
-2756.705579
-2752.049887
-2745.83879
-2738.054499
-2728.684237
-2717.720314
-2705.160377
-2691.007859
-2675.272273
-2657.969196
-2639.120195
-2618.752927
-2596.901301
-2573.605421
-2548.911311
-2522.870676
-2495.540801
-2466.984388
-2437.269128
-2406.467167
-2374.654674
-2341.911475
-2941.434786
-2937.39872
-2931.458911
-2923.584958
-2913.752977
-2901.945876
-2888.153914
-2872.375431
-2854.617159
-2834.894069
-2813.22942
-2789.655222
-2764.212574
-2736.951482
-2707.930415
-2677.216087
-2644.883516
-2611.015837
-2575.703548
-2539.043617
-2501.138954
-2462.098034
-3113.37291
-3110.264213
-3104.898035
-3097.228028
-3087.215946
-3074.832284
-3060.057151
-3042.881087
-3023.305312
-3001.341633
-2977.012989
-2950.354451
-2921.41343
-2890.249111
-2856.932157
-2821.544881
-2784.181371
-2744.947004
-2703.957358
-2661.337131
-2617.219621
-2571.746249
-3270.191625
-3268.250289
-3263.706147
-3256.494529
-3246.560347
-3233.859226
-3218.358674
-3200.038611
-3178.891965
-3154.925201
-3128.15912
-3098.630096
-3066.39013
-3031.505995
-2994.059481
-2954.148293
-2911.885836
-2867.400074
-2820.832451
-2772.337175
-2722.080574
-2670.240018
-3410.660039
-3410.042056
-3406.495392
-3399.935747
-3390.289822
-3377.496317
-3361.508239
-3342.292932
-3319.832965
-3294.128044
-3265.195218
-3233.069617
-3197.805472
-3159.475589
-3118.171599
-3074.005259
-3027.10809
-2977.62978
-2925.737452
-2871.615412
-2815.464066
-2757.497892
-3534.513601
-3535.290765
-3532.840487
-3527.05786
-3517.851456
-3505.141892
-3488.866353
-3468.979371
-3445.452043
-3418.27557
-3387.461641
-3353.041998
-3315.071033
-3273.626258
-3228.807517
-3180.738186
-3129.565683
-3075.460124
-3018.613447
-2959.239094
-2897.570583
-2833.859029
-3618.151903
-3620.01084
-3618.435065
-3613.302711
-3604.508999
-3591.961381
-3575.583875
-3555.321269
-3531.135741
-3503.010307
-3470.951545
-3434.9882
-3395.173626
-3351.587402
-3304.334173
-3253.544512
-3199.376397
-3142.014387
-3081.668229
-3018.572148
-2952.983643
-2885.181192
-3667.994494
-3670.534325
-3669.514499
-3664.80311
-3656.285908
-3643.862893
-3627.450039
-3606.98493
-3582.424394
-3553.746458
-3520.953787
-3484.073295
-3443.157777
-3398.287304
-3349.568802
-3297.137226
-3241.15702
-3181.821329
-3119.350508
-3053.991343
-2986.016079
-2915.720332
-3719.235545
-3722.514498
-3722.103396
-3717.860551
-3709.661095
-3697.396323
-3680.974257
-3660.324416
-3635.397132
-3606.165473
-3572.628077
-3534.809145
-3492.760165
-3446.5614
-3396.322003
-3342.181419
-3284.310628
-3222.911288
-3158.214516
-3090.480498
-3019.99758
-2947.079796
-3771.923882
-3776.004761
-3776.259635
-3772.536486
-3764.699683
-3752.630452
-3736.227969
-3715.413485
-3690.130245
-3660.345778
-3626.054117
-3587.275829
-3544.060392
-3496.488238
-3444.670875
-3388.751898
-3328.908301
-3265.350314
-3198.320655
-3128.09398
-3054.975553
-2979.298557
-3826.110421
-3831.060313
-3832.04312
-3828.895257
-3821.469784
-3809.63696
-3793.286197
-3772.330244
-3746.704748
-3716.370521
-3681.315969
-3641.55763
-3597.142827
-3548.151798
-3494.69778
-3436.92799
-3375.025389
-3309.209217
-3239.734406
-3166.890611
-3091.00063
-3012.41792
-3881.847651
-3887.738653
-3889.516288
-3887.004007
-3880.042604
-3868.491013
-3852.228227
-3831.157532
-3805.205973
-3774.326739
-3738.502025
-3697.743996
-3652.097324
-3601.641256
-3546.490032
-3486.794222
-3422.742886
-3354.564505
-3282.526389
-3206.933547
-3128.127196
-3046.482622
-3939.189992
-3946.099806
-3948.744151
-3946.932628
-3940.49293
-3929.271982
-3913.137471
-3891.982044
-3865.723215
-3834.305978
-3797.705839
-3755.9299
-3709.019274
-3657.051341
-3600.1408
-3538.441385
-3472.148169
-3401.498718
-3326.772706
-3248.290984
-3166.414358
-3081.541633
-3998.193843
-4006.206011
-4009.794501
-4008.754323
-4002.899228
-3992.063025
-3976.101065
-3954.894404
-3928.350332
-3896.405065
-3859.026647
-3816.216113
-3768.010013
-3714.483078
-3655.749958
-3591.967151
-3523.335327
-3450.100785
-3372.555566
-3291.036989
-3205.926672
-3117.648553
-4058.917617
-4068.121874
-4072.738087
-4072.545664
-4067.34343
-4056.950887
-4041.210126
-4019.989871
-3993.186483
-3960.726547
-3922.569597
-3878.709503
-3829.177306
-3774.044333
-3713.424484
-3647.476313
-3576.405442
-3500.466497
-3419.963933
-3335.252133
-3246.734616
-3154.861955
-4121.421821
-4131.914594
-4137.648631
-4138.386482
-4133.910976
-4124.026272
-4108.560382
-4087.368932
-4060.336441
-4027.37878
-3988.445831
-3943.523254
-3892.63566
-3835.850065
-3773.278644
-3705.08103
-3631.467018
-3552.699118
-3469.094174
-3381.02406
-3288.915084
-3193.2459
-4185.769143
-4197.654041
-4204.602854
-4206.35998
-4202.691182
-4193.384359
-4178.252574
-4157.137437
-4129.910527
-4096.475858
-4056.772562
-4010.777077
-3958.506567
-3900.022595
-3835.434357
-3764.901372
-3688.636699
-3606.910179
-3520.050833
-3428.448198
-3332.552089
-3232.870679
-4252.024519
-4265.412818
-4273.68065
-4276.553046
-4273.777601
-4265.125045
-4250.39248
-4229.406465
-4202.024506
-4168.137672
-4127.673306
-4080.597558
-4026.918924
-3966.692114
-3900.02185
-3827.066147
-3748.040228
-3663.220473
-3572.947596
-3477.628722
-3377.737728
-3273.813746
-4320.255208
-4335.266388
-4344.965307
-4349.056493
-4347.268174
-4339.352934
-4325.09081
-4304.292277
-4276.799714
-4242.490239
-4201.278342
-4153.118666
-4098.009596
-4035.99735
-3967.18047
-3891.713843
-3809.813458
-3721.761105
-3627.908388
-3528.679681
-3424.573322
-3316.160798
-4390.530907
-4407.293228
-4418.5437
-4423.965188
-4423.265262
-4416.177325
-4402.463268
-4381.916536
-4354.363446
-4319.666174
-4277.725196
-4228.482251
-4171.923945
-4108.086178
-4037.059386
-3958.99341
-3874.103217
-3782.67446
-3685.068452
-3581.726189
-3473.170661
-3360.006983
-4462.923872
-4481.574986
-4494.506426
-4501.378147
-4501.875734
-4495.712364
-4482.630828
-4462.406694
-4434.849374
-4399.805068
-4357.158961
-4306.838328
-4248.816158
-4183.116026
-4109.818082
-4029.064852
-3941.068022
-3846.115067
-3744.575395
-3636.905633
-3523.653321
-3405.458243
-4537.509058
-4558.196636
-4572.947978
-4581.398711
-4583.211198
-4578.07735
-4565.720085
-4545.896324
-4518.397781
-4483.053624
-4439.732375
-4388.345183
-4328.84944
-4261.254185
-4185.6268
-4102.099802
-4010.87882
-3912.250547
-3806.590346
-3694.36902
-3576.158133
-3452.632847
-4614.36429
-4637.246686
-4653.96697
-4664.134823
-4667.388305
-4663.397055
-4651.86351
-4632.525259
-4605.155591
-4569.565609
-4525.605793
-4473.169441
-4412.196239
-4342.67822
-4264.667139
-4178.282333
-4083.720015
-3981.262868
-3871.289424
-3754.282616
-3630.836963
-3501.663234
-4693.57046
-4718.817448
-4737.666442
-4749.699371
-4754.529064
-4751.80197
-4741.199572
-4722.439594
-4695.276288
-4659.501778
-4614.947195
-4561.486238
-4499.038608
-4427.576549
-4347.132877
-4257.810027
-4159.790807
-4053.349936
-3938.865577
-3816.829986
-3687.858873
-3552.698244
-4775.211789
-4803.005388
-4824.154215
-4838.21055
-4844.761119
-4843.428465
-4833.872776
-4815.791631
-4788.919838
-4753.02985
-4707.932267
-4653.479416
-4589.568566
-4516.149006
-4433.230782
-4340.895083
-4239.306609
-4128.727339
-4009.530607
-3882.214273
-3747.412604
-3605.905709
-4859.376144
-4889.911541
-4913.543303
-4929.792228
-4938.218021
-4938.41893
-4930.033703
-4912.739852
-4886.252657
-4850.324483
-4804.744414
-4749.341617
-4683.988294
-4608.6072
-4523.181214
-4427.765224
-4322.500301
-4207.629961
-4083.517174
-3950.660557
-3809.709239
-3661.475345
-4946.15542
-4979.641984
-5005.952392
-5024.57435
-5035.039536
-5036.921941
-5029.839071
-5013.448901
-4987.447544
-4951.567196
-4905.574678
-4849.274206
-4782.51012
-4705.174654
-4617.218504
-4518.664403
-4409.623329
-4290.313509
-4161.080763
-4022.418289
-3874.985076
-3719.621984
-5035.646028
-5072.308395
-5101.506436
-5122.693417
-5135.372041
-5139.092507
-5133.451853
-5118.089582
-5092.683576
-5056.946185
-5010.621504
-4953.487072
-4885.356423
-4806.0869
-4715.591354
-4613.853592
-4500.946933
-4377.05622
-4242.501905
-4097.764034
-3943.5049
-3780.589335
-5127.949527
-5168.028725
-5200.337413
-5224.293144
-5239.369055
-5245.092424
-5241.041416
-5226.838795
-5202.145853
-5166.655943
-5120.090316
-5062.198255
-4992.759427
-4911.591553
-4818.563282
-4713.611701
-4596.763616
-4468.160909
-4328.088805
-4177.004707
-4015.56583
-3844.654428
-5223.17345
-5266.928108
-5302.585293
-5329.525332
-5347.19189
-5355.090688
-5352.783601
-5339.879306
-5316.024977
-5280.89654
-5234.192722
-5175.633215
-5104.960672
-5021.94811
-4926.41288
-4818.23641
-4697.38863
-4563.957155
-4418.18025
-4260.481183
-4091.501646
-3912.132655
-5321.432352
-5369.140066
-5408.399214
-5438.550959
-5459.010405
-5469.263884
-5468.860679
-5457.39928
-5434.516225
-5399.872537
-5353.145311
-5294.023676
-5222.210072
-5137.427358
-5039.433703
-4928.044666
-4803.161225
-4664.803395
-4513.148559
-4348.572097
-4171.687425
-3983.383281
-5422.849066
-5474.808059
-5517.938901
-5551.541443
-5575.003852
-5587.796557
-5589.461229
-5579.591677
-5557.81857
-5523.791728
-5477.168288
-5417.606288
-5344.764774
-5258.310585
-5157.933966
-5043.373028
-4914.445785
-4771.088967
-4613.402607
-4441.69785
-4256.544506
-4058.815426
-5527.556224
-5584.087405
-5631.376454
-5668.680127
-5695.361922
-5710.881641
-5714.78002
-5706.653617
-5686.133658
-5652.863829
-5606.484023
-5546.621205
-5472.887934
-5384.888725
-5282.236236
-5164.57805
-5031.633064
-4883.236353
-4719.391134
-4540.324969
-4346.545905
-4138.894606
-5635.698226
-5697.147623
-5748.898713
-5790.164138
-5820.286036
-5838.720989
-5845.017827
-5838.785551
-5819.664479
-5787.298802
-5741.315152
-5681.310142
-5606.846934
-5517.460988
-5412.676698
-5292.036393
-5155.141327
-5001.703465
-4831.606244
-4644.970783
-4442.222088
-4224.149682
-5747.433938
-5814.175379
-5870.710312
-5916.206799
-5949.990892
-5971.525936
-5980.381015
-5976.19001
-5958.613422
-5927.304429
-5881.881818
-5821.913476
-5746.910585
-5656.33246
-5549.603492
-5426.14421
-5285.417013
-5126.98574
-4950.586922
-4756.208232
-4544.166889
-4315.17989
-5862.9403
-5935.378378
-5997.037463
-6047.04073
-6084.706345
-6109.51793
-6121.080956
-6119.070039
-6103.179912
-6073.083395
-6028.398394
-5968.666782
-5893.345688
-5801.811011
-5693.374375
-5567.315985
-5422.935102
-5259.618224
-5076.922825
-4874.671085
-4653.043749
-4412.661884
-5982.416796
-6060.990614
-6128.1327
-6182.921739
-6224.679853
-6252.929437
-6267.333502
-6267.627543
-6253.557876
-6224.830132
-6181.069959
-6121.797112
-6046.413325
-5954.20389
-5844.35405
-5715.983118
-5568.199459
-5400.177985
-5211.258732
-5001.059984
-4769.59258
-4517.356782
-6106.090967
-6191.279227
-6264.281137
-6324.133544
-6370.17933
-6402.004813
-6419.358044
-6422.060873
-6409.93229
-6382.726605
-6340.087628
-6281.518136
-6206.36404
-6113.813243
-6002.910475
-5872.591645
-5721.742627
-5549.28648
-5354.299513
-5136.149337
-4894.637239
-4630.116809
-6234.225831
-6326.553118
-6405.808551
-6470.99346
-6521.495984
-6557.000515
-6577.375601
-6582.561207
-6572.474362
-6546.936663
-6505.622343
-6448.023651
-6373.43134
-6280.929944
-6169.409533
-6037.598505
-5884.124598
-5707.611599
-5506.815633
-5280.795366
-5029.093983
-4751.891465
-6367.130461
-6467.174314
-6553.091577
-6623.859588
-6678.947767
-6718.185236
-6741.60665
-6749.308816
-6741.336668
-6717.60038
-6677.818575
-6621.480782
-6547.824612
-6455.826576
-6344.208684
-6211.466806
-6055.93097
-5875.869968
-5669.650133
-5435.946722
-5173.982506
-4883.734286
-6505.174238
-6613.574233
-6706.571362
-6783.140021
-6842.88382
-6885.840164
-6912.268381
-6922.468652
-6916.647792
-6894.827995
-6856.787604
-6802.022571
-6729.721088
-6638.749078
-6527.648955
-6394.659374
-6237.769821
-6054.829148
-5843.727417
-5602.658874
-5330.441376
-5026.811639
-6648.805518
-6766.27562
-6866.771594
-6949.303126
-7013.687353
-7060.256573
-7089.56889
-7102.182661
-7098.503857
-7078.691094
-7042.598305
-6989.738127
-6919.255188
-6829.905384
-6720.043526
-6587.628714
-6430.265471
-6245.308301
-6030.063411
-5782.113361
-5499.750309
-5182.415951
-6798.578127
-6925.920752
-7034.320381
-7122.889428
-7191.778051
-7241.731859
-7273.699997
-7288.561323
-7286.959677
-7269.213611
-7235.267768
-7184.662391
-7116.506956
-7029.452375
-6921.663696
-6790.803644
-6634.048982
-6448.177325
-6229.778222
-5975.64531
-5683.365083
-5351.989603
-855.8910199
-854.899107
-853.9027403
-852.9019366
-851.8967123
-850.8870846
-849.8730707
-848.854688
-847.8319545
-881.9115835
-880.8254056
-879.733211
-878.6350251
-877.5308738
-876.4207835
-875.3047811
-874.1828943
-873.055151
-926.3925373
-925.1340735
-923.8661663
-922.5888676
-921.3022308
-920.0063102
-918.7011617
-917.3868421
-916.0634098
-986.8514335
-985.3234585
-983.7798991
-982.2208743
-980.6465062
-979.0569196
-977.4522423
-975.8326046
-974.1981396
-1062.634265
-1060.690442
-1058.720973
-1056.726131
-1054.706197
-1052.661456
-1050.592201
-1048.498728
-1046.381341
-1153.369874
-1150.788364
-1148.165703
-1145.502494
-1142.799355
-1140.056916
-1137.275817
-1134.456713
-1131.600267
-1258.225212
-1254.686241
-1251.083353
-1247.417818
-1243.690933
-1239.904019
-1236.058419
-1232.155499
-1228.196643
-1375.632411
-1370.702517
-1365.676677
-1360.557435
-1355.347383
-1350.049157
-1344.665436
-1339.198934
-1333.652397
-1503.280391
-1496.406565
-1489.393547
-1482.246181
-1474.969397
-1467.568203
-1460.047672
-1452.412939
-1444.669182
-1638.257644
-1628.776379
-1619.099922
-1609.23705
-1599.196686
-1588.987876
-1578.619765
-1568.101575
-1557.442586
-1777.274503
-1764.439054
-1751.33898
-1737.989419
-1724.405734
-1710.603465
-1696.598278
-1682.405919
-1668.042168
-1916.907753
-1899.933425
-1882.612159
-1864.968804
-1847.028533
-1828.81674
-1810.35895
-1791.680716
-1772.80753
-2053.874917
-2031.998269
-2009.68133
-1986.962963
-1963.882457
-1940.479346
-1916.793221
-1892.863549
-1868.729495
-2185.256595
-2157.79903
-2129.799668
-2101.316491
-2072.408019
-2043.132979
-2013.549964
-1983.7171
-1953.691744
-2308.693782
-2275.119649
-2240.897378
-2206.109646
-2170.839803
-2135.171317
-2099.187149
-2062.969155
-2026.597604
-2422.479269
-2382.438058
-2341.640633
-2300.199918
-2258.229767
-2215.844042
-2173.155457
-2130.274562
-2087.309061
-2525.58395
-2478.93058
-2431.413549
-2383.181141
-2334.383015
-2285.168648
-2235.685377
-2186.076863
-2136.482252
-2617.593486
-2564.384941
-2510.207609
-2455.249498
-2399.700434
-2343.749611
-2287.582816
-2231.380462
-2175.316518
-2698.604734
-2639.076877
-2578.478892
-2517.041532
-2454.997553
-2392.578447
-2330.011175
-2267.51574
-2205.303427
-2769.098229
-2703.629626
-2636.994545
-2569.467511
-2501.325244
-2432.842928
-2364.290467
-2295.929144
-2228.008591
-2816.236114
-2746.527273
-2675.581464
-2603.706673
-2531.21365
-2458.411806
-2385.604747
-2313.085815
-2241.133978
-2844.223323
-2771.927283
-2698.350477
-2623.821848
-2548.673854
-2473.237885
-2397.838941
-2322.790376
-2248.389432
-2872.896776
-2797.87556
-2721.526244
-2644.201161
-2566.256815
-2488.048394