/*--------------------------------*- C++ -*----------------------------------*\
  =========                 |
  \\      /  F ield         | OpenFOAM: The Open Source CFD Toolbox
   \\    /   O peration     | Website:  https://openfoam.org
    \\  /    A nd           | Version:  7
     \\/     M anipulation  |
\*---------------------------------------------------------------------------*/
FoamFile
{
    version     2.0;
    format      ascii;
    class       volVectorField;
    location    "2e-13";
    object      EA;
}
// * * * * * * * * * * * * * * * * * * * * * * * * * * * * * * * * * * * * * //

dimensions      [1 1 -3 0 0 -1 0];

internalField   nonuniform List<vector> 
15066
(
(252.401 4.75063e+06 -0)
(757.438 4.75164e+06 -0)
(1263.18 4.75366e+06 -0)
(1770.09 4.75669e+06 -0)
(2278.64 4.76074e+06 -0)
(2789.31 4.7658e+06 -0)
(3302.58 4.77189e+06 -0)
(3818.94 4.77901e+06 -0)
(4338.9 4.78717e+06 -0)
(4862.95 4.79636e+06 -0)
(5391.62 4.80661e+06 -0)
(5925.43 4.81792e+06 -0)
(6464.94 4.83031e+06 -0)
(7010.7 4.84378e+06 -0)
(7563.29 4.85834e+06 -0)
(8123.32 4.87402e+06 -0)
(8691.4 4.89083e+06 -0)
(9268.18 4.90878e+06 -0)
(9854.32 4.92789e+06 -0)
(10450.5 4.94819e+06 -0)
(11057.5 4.96968e+06 -0)
(11676.1 4.99241e+06 -0)
(12307 5.01638e+06 -0)
(12951.1 5.04162e+06 -0)
(13609.2 5.06817e+06 -0)
(14282.4 5.09604e+06 -0)
(14971.5 5.12528e+06 -0)
(15677.6 5.15591e+06 -0)
(16401.8 5.18797e+06 -0)
(17145.2 5.2215e+06 -0)
(17909.2 5.25653e+06 -0)
(18694.8 5.29311e+06 -0)
(19503.7 5.33129e+06 -0)
(20337.1 5.3711e+06 -0)
(21196.8 5.41261e+06 -0)
(22084.3 5.45586e+06 -0)
(23001.5 5.50092e+06 -0)
(23950.2 5.54784e+06 -0)
(24932.7 5.59669e+06 -0)
(25951 5.64753e+06 -0)
(27007.5 5.70045e+06 -0)
(28104.9 5.75552e+06 -0)
(29245.8 5.81283e+06 -0)
(30433.3 5.87246e+06 -0)
(31670.7 5.93451e+06 -0)
(32961.3 5.99909e+06 -0)
(34309.1 6.0663e+06 -0)
(35718.1 6.13626e+06 -0)
(37193 6.20911e+06 -0)
(38738.5 6.28496e+06 -0)
(40360.2 6.36398e+06 -0)
(42063.7 6.44632e+06 -0)
(43855.8 6.53215e+06 -0)
(45743.4 6.62165e+06 -0)
(47734.3 6.71502e+06 -0)
(49837.2 6.81248e+06 -0)
(52061.7 6.91425e+06 -0)
(54418.4 7.02059e+06 -0)
(56919 7.13178e+06 -0)
(59576.7 7.24811e+06 -0)
(62406.2 7.36991e+06 -0)
(65423.9 7.49755e+06 -0)
(68648.2 7.6314e+06 -0)
(72100.1 7.77191e+06 -0)
(75803.1 7.91955e+06 -0)
(79783.9 8.07485e+06 -0)
(84073 8.23838e+06 -0)
(88705.2 8.41079e+06 -0)
(93720.5 8.59282e+06 -0)
(99164.9 8.78525e+06 -0)
(105092 8.98899e+06 -0)
(111563 9.20507e+06 -0)
(118652 9.43463e+06 -0)
(126443 9.67898e+06 -0)
(135039 9.9396e+06 -0)
(144558 1.02182e+07 -0)
(155146 1.05168e+07 -0)
(166977 1.08375e+07 -0)
(180265 1.11832e+07 -0)
(195269 1.15569e+07 -0)
(212316 1.19623e+07 -0)
(231813 1.24037e+07 -0)
(254278 1.28865e+07 -0)
(280377 1.34172e+07 -0)
(310984 1.40035e+07 -0)
(347257 1.46554e+07 -0)
(390769 1.53853e+07 -0)
(443698 1.62091e+07 -0)
(509148 1.71476e+07 -0)
(591669 1.82286e+07 -0)
(698195 1.94903e+07 -0)
(839775 2.09863e+07 -0)
(1.03509e+06 2.27956e+07 -0)
(1.31818e+06 2.50389e+07 -0)
(1.75783e+06 2.79118e+07 -0)
(2.51311e+06 3.17546e+07 -0)
(4.01826e+06 3.72144e+07 -0)
(7.6874e+06 4.56637e+07 -0)
(1.89097e+07 6.04108e+07 -0)
(6.08396e+07 9.05949e+07 -0)
(756.971 4.74962e+06 -0)
(2271.61 4.75063e+06 -0)
(3788.36 4.75265e+06 -0)
(5308.61 4.75568e+06 -0)
(6833.79 4.75972e+06 -0)
(8365.32 4.76478e+06 -0)
(9904.65 4.77086e+06 -0)
(11453.2 4.77798e+06 -0)
(13012.6 4.78612e+06 -0)
(14584.2 4.79531e+06 -0)
(16169.7 4.80555e+06 -0)
(17770.6 4.81685e+06 -0)
(19388.6 4.82922e+06 -0)
(21025.3 4.84268e+06 -0)
(22682.4 4.85723e+06 -0)
(24361.9 4.8729e+06 -0)
(26065.5 4.88969e+06 -0)
(27795.2 4.90762e+06 -0)
(29552.9 4.92671e+06 -0)
(31340.8 4.94699e+06 -0)
(33161 4.96846e+06 -0)
(35015.9 4.99116e+06 -0)
(36907.7 5.0151e+06 -0)
(38839.1 5.04032e+06 -0)
(40812.7 5.06684e+06 -0)
(42831.1 5.09468e+06 -0)
(44897.5 5.12389e+06 -0)
(47014.7 5.15448e+06 -0)
(49186.2 5.18651e+06 -0)
(51415.3 5.21999e+06 -0)
(53705.7 5.25498e+06 -0)
(56061.4 5.29152e+06 -0)
(58486.4 5.32965e+06 -0)
(60985.2 5.36941e+06 -0)
(63562.4 5.41087e+06 -0)
(66223.2 5.45406e+06 -0)
(68972.8 5.49906e+06 -0)
(71817.1 5.54591e+06 -0)
(74762.1 5.59469e+06 -0)
(77814.6 5.64546e+06 -0)
(80981.7 5.6983e+06 -0)
(84271 5.75329e+06 -0)
(87690.8 5.8105e+06 -0)
(91250.1 5.87004e+06 -0)
(94958.6 5.93199e+06 -0)
(98826.8 5.99645e+06 -0)
(102866 6.06355e+06 -0)
(107089 6.13338e+06 -0)
(111508 6.20609e+06 -0)
(116139 6.2818e+06 -0)
(120998 6.36067e+06 -0)
(126103 6.44283e+06 -0)
(131472 6.52848e+06 -0)
(137127 6.61778e+06 -0)
(143091 6.71094e+06 -0)
(149390 6.80816e+06 -0)
(156053 6.90968e+06 -0)
(163111 7.01575e+06 -0)
(170600 7.12663e+06 -0)
(178558 7.24264e+06 -0)
(187030 7.36408e+06 -0)
(196065 7.49132e+06 -0)
(205717 7.62475e+06 -0)
(216049 7.76478e+06 -0)
(227131 7.9119e+06 -0)
(239043 8.06661e+06 -0)
(251876 8.22949e+06 -0)
(265733 8.40119e+06 -0)
(280732 8.58241e+06 -0)
(297012 8.77393e+06 -0)
(314731 8.97666e+06 -0)
(334073 9.19159e+06 -0)
(355254 9.41984e+06 -0)
(378527 9.6627e+06 -0)
(404192 9.92162e+06 -0)
(432605 1.01983e+07 -0)
(464195 1.04945e+07 -0)
(499476 1.08127e+07 -0)
(539076 1.11552e+07 -0)
(583765 1.15252e+07 -0)
(634498 1.19262e+07 -0)
(692471 1.23623e+07 -0)
(759198 1.28387e+07 -0)
(836625 1.33615e+07 -0)
(927285 1.3938e+07 -0)
(1.03453e+06 1.45775e+07 -0)
(1.16289e+06 1.52914e+07 -0)
(1.31858e+06 1.60944e+07 -0)
(1.51037e+06 1.70051e+07 -0)
(1.751e+06 1.8048e+07 -0)
(2.05953e+06 1.92558e+07 -0)
(2.4656e+06 2.06731e+07 -0)
(3.01748e+06 2.23617e+07 -0)
(3.79797e+06 2.44093e+07 -0)
(4.95787e+06 2.69419e+07 -0)
(6.78946e+06 3.01377e+07 -0)
(9.8908e+06 3.42248e+07 -0)
(1.5509e+07 3.93659e+07 -0)
(2.60215e+07 4.49737e+07 -0)
(4.37605e+07 4.63631e+07 -0)
(1260.84 4.7476e+06 -0)
(3783.69 4.74861e+06 -0)
(6310.04 4.75062e+06 -0)
(8842.22 4.75365e+06 -0)
(11382.6 4.75768e+06 -0)
(13933.5 4.76274e+06 -0)
(16497.5 4.76881e+06 -0)
(19076.8 4.77591e+06 -0)
(21674 4.78404e+06 -0)
(24291.7 4.79321e+06 -0)
(26932.4 4.80343e+06 -0)
(29598.7 4.81471e+06 -0)
(32293.4 4.82706e+06 -0)
(35019.3 4.84049e+06 -0)
(37779.3 4.85501e+06 -0)
(40576.4 4.87064e+06 -0)
(43413.5 4.8874e+06 -0)
(46294.1 4.9053e+06 -0)
(49221.3 4.92435e+06 -0)
(52198.7 4.94458e+06 -0)
(55229.9 4.96601e+06 -0)
(58318.7 4.98866e+06 -0)
(61469 5.01256e+06 -0)
(64685 5.03772e+06 -0)
(67971.2 5.06418e+06 -0)
(71332.1 5.09196e+06 -0)
(74772.5 5.1211e+06 -0)
(78297.6 5.15163e+06 -0)
(81912.9 5.18358e+06 -0)
(85624 5.21698e+06 -0)
(89437 5.25189e+06 -0)
(93358.5 5.28834e+06 -0)
(97395.3 5.32637e+06 -0)
(101555 5.36603e+06 -0)
(105845 5.40738e+06 -0)
(110273 5.45046e+06 -0)
(114850 5.49533e+06 -0)
(119583 5.54206e+06 -0)
(124484 5.5907e+06 -0)
(129564 5.64132e+06 -0)
(134834 5.694e+06 -0)
(140307 5.74882e+06 -0)
(145996 5.80586e+06 -0)
(151918 5.8652e+06 -0)
(158087 5.92695e+06 -0)
(164521 5.99119e+06 -0)
(171239 6.05805e+06 -0)
(178262 6.12764e+06 -0)
(185612 6.20007e+06 -0)
(193313 6.27549e+06 -0)
(201391 6.35404e+06 -0)
(209877 6.43587e+06 -0)
(218802 6.52115e+06 -0)
(228201 6.61006e+06 -0)
(238112 6.70278e+06 -0)
(248579 6.79954e+06 -0)
(259649 6.90056e+06 -0)
(271374 7.00608e+06 -0)
(283811 7.11637e+06 -0)
(297027 7.23173e+06 -0)
(311092 7.35246e+06 -0)
(326088 7.47892e+06 -0)
(342106 7.61148e+06 -0)
(359248 7.75057e+06 -0)
(377630 7.89664e+06 -0)
(397382 8.0502e+06 -0)
(418655 8.2118e+06 -0)
(441617 8.38207e+06 -0)
(466464 8.56168e+06 -0)
(493421 8.75142e+06 -0)
(522747 8.95213e+06 -0)
(554743 9.16478e+06 -0)
(589763 9.39045e+06 -0)
(628218 9.63036e+06 -0)
(670596 9.88591e+06 -0)
(717477 1.01587e+07 -0)
(769552 1.04505e+07 -0)
(827656 1.07634e+07 -0)
(892798 1.10998e+07 -0)
(966217 1.14625e+07 -0)
(1.04944e+06 1.18549e+07 -0)
(1.14437e+06 1.22807e+07 -0)
(1.25342e+06 1.27446e+07 -0)
(1.37964e+06 1.3252e+07 -0)
(1.527e+06 1.38095e+07 -0)
(1.7007e+06 1.44251e+07 -0)
(1.90767e+06 1.51085e+07 -0)
(2.15734e+06 1.58719e+07 -0)
(2.46276e+06 1.67303e+07 -0)
(2.84245e+06 1.77024e+07 -0)
(3.32332e+06 1.8812e+07 -0)
(3.94561e+06 2.00886e+07 -0)
(4.77125e+06 2.15687e+07 -0)
(5.89836e+06 2.32947e+07 -0)
(7.4862e+06 2.53087e+07 -0)
(9.79606e+06 2.76293e+07 -0)
(1.32465e+07 3.01814e+07 -0)
(1.84363e+07 3.26013e+07 -0)
(2.59069e+07 3.3755e+07 -0)
(3.49154e+07 3.08344e+07 -0)
(1763.55 4.74458e+06 -0)
(5292.27 4.74558e+06 -0)
(8825.88 4.74759e+06 -0)
(12367.6 4.75061e+06 -0)
(15920.8 4.75463e+06 -0)
(19488.8 4.75967e+06 -0)
(23074.8 4.76572e+06 -0)
(26682.4 4.7728e+06 -0)
(30315 4.78091e+06 -0)
(33976.1 4.79006e+06 -0)
(37669.3 4.80025e+06 -0)
(41398.4 4.81149e+06 -0)
(45167.1 4.82381e+06 -0)
(48979.3 4.8372e+06 -0)
(52839.1 4.85168e+06 -0)
(56750.7 4.86727e+06 -0)
(60718.2 4.88397e+06 -0)
(64746.3 4.90181e+06 -0)
(68839.6 4.92081e+06 -0)
(73002.8 4.94098e+06 -0)
(77241.2 4.96234e+06 -0)
(81559.9 4.98492e+06 -0)
(85964.5 5.00874e+06 -0)
(90460.9 5.03382e+06 -0)
(95055 5.06019e+06 -0)
(99753.4 5.08789e+06 -0)
(104563 5.11693e+06 -0)
(109490 5.14735e+06 -0)
(114544 5.17919e+06 -0)
(119731 5.21248e+06 -0)
(125060 5.24726e+06 -0)
(130540 5.28357e+06 -0)
(136182 5.32146e+06 -0)
(141994 5.36097e+06 -0)
(147988 5.40216e+06 -0)
(154176 5.44507e+06 -0)
(160569 5.48976e+06 -0)
(167182 5.53629e+06 -0)
(174028 5.58472e+06 -0)
(181123 5.63512e+06 -0)
(188483 5.68757e+06 -0)
(196125 5.74214e+06 -0)
(204070 5.79891e+06 -0)
(212338 5.85796e+06 -0)
(220950 5.9194e+06 -0)
(229932 5.98332e+06 -0)
(239308 6.04983e+06 -0)
(249109 6.11903e+06 -0)
(259364 6.19107e+06 -0)
(270108 6.26605e+06 -0)
(281377 6.34413e+06 -0)
(293213 6.42546e+06 -0)
(305658 6.51019e+06 -0)
(318762 6.59851e+06 -0)
(332578 6.6906e+06 -0)
(347166 6.78667e+06 -0)
(362590 6.88694e+06 -0)
(378923 6.99164e+06 -0)
(396245 7.10105e+06 -0)
(414645 7.21543e+06 -0)
(434223 7.33511e+06 -0)
(455090 7.46041e+06 -0)
(477371 7.5917e+06 -0)
(501208 7.72938e+06 -0)
(526758 7.8739e+06 -0)
(554202 8.02574e+06 -0)
(583743 8.18544e+06 -0)
(615616 8.35359e+06 -0)
(650086 8.53084e+06 -0)
(687460 8.71793e+06 -0)
(728092 8.91566e+06 -0)
(772391 9.12495e+06 -0)
(820836 9.34681e+06 -0)
(873986 9.58239e+06 -0)
(932499 9.83299e+06 -0)
(997154 1.01001e+07 -0)
(1.06888e+06 1.03853e+07 -0)
(1.1488e+06 1.06905e+07 -0)
(1.23824e+06 1.1018e+07 -0)
(1.33887e+06 1.13702e+07 -0)
(1.45267e+06 1.17501e+07 -0)
(1.58217e+06 1.2161e+07 -0)
(1.73046e+06 1.26069e+07 -0)
(1.90151e+06 1.30924e+07 -0)
(2.10037e+06 1.36228e+07 -0)
(2.33359e+06 1.42048e+07 -0)
(2.60977e+06 1.48457e+07 -0)
(2.94036e+06 1.55545e+07 -0)
(3.34089e+06 1.63418e+07 -0)
(3.8327e+06 1.72195e+07 -0)
(4.44568e+06 1.82011e+07 -0)
(5.22227e+06 1.93006e+07 -0)
(6.22356e+06 2.05297e+07 -0)
(7.53801e+06 2.18921e+07 -0)
(9.29252e+06 2.3369e+07 -0)
(1.16621e+07 2.48896e+07 -0)
(1.48628e+07 2.627e+07 -0)
(1.90827e+07 2.7103e+07 -0)
(2.42546e+07 2.66108e+07 -0)
(2.95729e+07 2.36519e+07 -0)
(2264.63 4.74055e+06 -0)
(6795.97 4.74155e+06 -0)
(11333.6 4.74355e+06 -0)
(15881.6 4.74656e+06 -0)
(20444.3 4.75057e+06 -0)
(25025.9 4.75558e+06 -0)
(29630.7 4.76162e+06 -0)
(34263.1 4.76867e+06 -0)
(38927.5 4.77675e+06 -0)
(43628.4 4.78586e+06 -0)
(48370.5 4.79601e+06 -0)
(53158.5 4.80721e+06 -0)
(57997.3 4.81948e+06 -0)
(62891.8 4.83282e+06 -0)
(67847.2 4.84724e+06 -0)
(72868.9 4.86277e+06 -0)
(77962.4 4.87941e+06 -0)
(83133.4 4.89718e+06 -0)
(88387.8 4.9161e+06 -0)
(93731.9 4.93619e+06 -0)
(99172.1 4.95746e+06 -0)
(104715 4.97994e+06 -0)
(110368 5.00366e+06 -0)
(116139 5.02863e+06 -0)
(122035 5.05489e+06 -0)
(128064 5.08246e+06 -0)
(134235 5.11137e+06 -0)
(140557 5.14165e+06 -0)
(147041 5.17334e+06 -0)
(153695 5.20648e+06 -0)
(160532 5.24109e+06 -0)
(167561 5.27723e+06 -0)
(174797 5.31493e+06 -0)
(182251 5.35424e+06 -0)
(189938 5.39521e+06 -0)
(197872 5.43789e+06 -0)
(206069 5.48234e+06 -0)
(214547 5.52861e+06 -0)
(223323 5.57677e+06 -0)
(232416 5.62688e+06 -0)
(241848 5.67902e+06 -0)
(251642 5.73325e+06 -0)
(261822 5.78967e+06 -0)
(272413 5.84834e+06 -0)
(283444 5.90938e+06 -0)
(294947 5.97286e+06 -0)
(306954 6.0389e+06 -0)
(319501 6.10761e+06 -0)
(332628 6.17911e+06 -0)
(346378 6.25352e+06 -0)
(360798 6.33098e+06 -0)
(375938 6.41164e+06 -0)
(391855 6.49565e+06 -0)
(408611 6.58319e+06 -0)
(426273 6.67444e+06 -0)
(444916 6.7696e+06 -0)
(464622 6.86888e+06 -0)
(485483 6.97251e+06 -0)
(507600 7.08074e+06 -0)
(531085 7.19385e+06 -0)
(556064 7.31213e+06 -0)
(582677 7.4359e+06 -0)
(611081 7.56551e+06 -0)
(641453 7.70135e+06 -0)
(673992 7.84384e+06 -0)
(708923 7.99343e+06 -0)
(746501 8.15063e+06 -0)
(787017 8.31601e+06 -0)
(830804 8.49017e+06 -0)
(878242 8.67379e+06 -0)
(929769 8.86764e+06 -0)
(985894 9.07255e+06 -0)
(1.0472e+06 9.28946e+06 -0)
(1.11439e+06 9.51941e+06 -0)
(1.18826e+06 9.76359e+06 -0)
(1.26976e+06 1.00233e+07 -0)
(1.36002e+06 1.03e+07 -0)
(1.4604e+06 1.05955e+07 -0)
(1.57252e+06 1.09115e+07 -0)
(1.69833e+06 1.12503e+07 -0)
(1.84022e+06 1.16143e+07 -0)
(2.00115e+06 1.20064e+07 -0)
(2.18475e+06 1.24296e+07 -0)
(2.39558e+06 1.28877e+07 -0)
(2.63939e+06 1.33848e+07 -0)
(2.92353e+06 1.39255e+07 -0)
(3.25744e+06 1.45149e+07 -0)
(3.65344e+06 1.51587e+07 -0)
(4.12773e+06 1.58628e+07 -0)
(4.7018e+06 1.66326e+07 -0)
(5.40443e+06 1.74724e+07 -0)
(6.27422e+06 1.83829e+07 -0)
(7.36272e+06 1.93576e+07 -0)
(8.73761e+06 2.03749e+07 -0)
(1.04837e+07 2.13855e+07 -0)
(1.26971e+07 2.22901e+07 -0)
(1.54598e+07 2.29061e+07 -0)
(1.87771e+07 2.29298e+07 -0)
(2.24559e+07 2.19333e+07 -0)
(2.59644e+07 1.95026e+07 -0)
(2763.63 4.73552e+06 -0)
(8293.42 4.73652e+06 -0)
(13830.8 4.73851e+06 -0)
(19380.9 4.7415e+06 -0)
(24948.9 4.74549e+06 -0)
(30539.8 4.75049e+06 -0)
(36159 4.75649e+06 -0)
(41811.7 4.76351e+06 -0)
(47503.4 4.77155e+06 -0)
(53239.6 4.78062e+06 -0)
(59025.8 4.79072e+06 -0)
(64867.8 4.80187e+06 -0)
(70771.6 4.81408e+06 -0)
(76743.3 4.82735e+06 -0)
(82789.1 4.84171e+06 -0)
(88915.4 4.85716e+06 -0)
(95129 4.87371e+06 -0)
(101437 4.89139e+06 -0)
(107846 4.91022e+06 -0)
(114365 4.9302e+06 -0)
(121000 4.95137e+06 -0)
(127761 4.97373e+06 -0)
(134655 4.99732e+06 -0)
(141692 5.02216e+06 -0)
(148881 5.04828e+06 -0)
(156232 5.07569e+06 -0)
(163756 5.10444e+06 -0)
(171464 5.13455e+06 -0)
(179367 5.16606e+06 -0)
(187478 5.199e+06 -0)
(195810 5.2334e+06 -0)
(204377 5.26932e+06 -0)
(213194 5.30678e+06 -0)
(222276 5.34585e+06 -0)
(231640 5.38655e+06 -0)
(241305 5.42895e+06 -0)
(251289 5.4731e+06 -0)
(261614 5.51905e+06 -0)
(272299 5.56687e+06 -0)
(283371 5.61662e+06 -0)
(294853 5.66837e+06 -0)
(306773 5.72219e+06 -0)
(319161 5.77816e+06 -0)
(332048 5.83637e+06 -0)
(345467 5.8969e+06 -0)
(359458 5.95985e+06 -0)
(374058 6.02531e+06 -0)
(389313 6.0934e+06 -0)
(405269 6.16423e+06 -0)
(421978 6.23793e+06 -0)
(439497 6.31462e+06 -0)
(457886 6.39446e+06 -0)
(477214 6.47758e+06 -0)
(497554 6.56416e+06 -0)
(518987 6.65438e+06 -0)
(541603 6.74841e+06 -0)
(565500 6.84647e+06 -0)
(590788 6.94877e+06 -0)
(617587 7.05557e+06 -0)
(646032 7.1671e+06 -0)
(676271 7.28366e+06 -0)
(708473 7.40555e+06 -0)
(742823 7.53311e+06 -0)
(779532 7.66668e+06 -0)
(818834 7.80667e+06 -0)
(860997 7.9535e+06 -0)
(906321 8.10766e+06 -0)
(955149 8.26964e+06 -0)
(1.00787e+06 8.44002e+06 -0)
(1.06493e+06 8.61943e+06 -0)
(1.12685e+06 8.80856e+06 -0)
(1.19421e+06 9.00815e+06 -0)
(1.2677e+06 9.21906e+06 -0)
(1.34811e+06 9.44221e+06 -0)
(1.43638e+06 9.67865e+06 -0)
(1.5336e+06 9.92952e+06 -0)
(1.64105e+06 1.01961e+07 -0)
(1.76028e+06 1.04798e+07 -0)
(1.89309e+06 1.07822e+07 -0)
(2.0417e+06 1.11052e+07 -0)
(2.20875e+06 1.14505e+07 -0)
(2.39747e+06 1.18205e+07 -0)
(2.61181e+06 1.22175e+07 -0)
(2.85666e+06 1.26442e+07 -0)
(3.13809e+06 1.31031e+07 -0)
(3.46369e+06 1.35974e+07 -0)
(3.84302e+06 1.41297e+07 -0)
(4.28823e+06 1.47027e+07 -0)
(4.81477e+06 1.5318e+07 -0)
(5.44234e+06 1.59757e+07 -0)
(6.19604e+06 1.66729e+07 -0)
(7.10745e+06 1.74012e+07 -0)
(8.2155e+06 1.81428e+07 -0)
(9.56596e+06 1.88644e+07 -0)
(1.12078e+07 1.95081e+07 -0)
(1.31826e+07 1.99794e+07 -0)
(1.55024e+07 2.01343e+07 -0)
(1.81099e+07 1.97769e+07 -0)
(2.08274e+07 1.86899e+07 -0)
(2.33303e+07 1.67344e+07 -0)
(3260.09 4.7295e+06 -0)
(9783.26 4.73049e+06 -0)
(16315.4 4.73247e+06 -0)
(22862.4 4.73544e+06 -0)
(29430.4 4.73941e+06 -0)
(36025.5 4.74438e+06 -0)
(42653.7 4.75035e+06 -0)
(49321.4 4.75733e+06 -0)
(56034.9 4.76532e+06 -0)
(62800.6 4.77434e+06 -0)
(69625.2 4.78439e+06 -0)
(76515.4 4.79547e+06 -0)
(83478.2 4.80761e+06 -0)
(90520.7 4.82081e+06 -0)
(97650.3 4.83508e+06 -0)
(104875 4.85043e+06 -0)
(112201 4.86689e+06 -0)
(119639 4.88447e+06 -0)
(127196 4.90318e+06 -0)
(134881 4.92304e+06 -0)
(142703 4.94407e+06 -0)
(150672 4.9663e+06 -0)
(158798 4.98974e+06 -0)
(167092 5.01442e+06 -0)
(175565 5.04036e+06 -0)
(184228 5.0676e+06 -0)
(193093 5.09615e+06 -0)
(202174 5.12605e+06 -0)
(211485 5.15734e+06 -0)
(221039 5.19005e+06 -0)
(230853 5.22421e+06 -0)
(240942 5.25986e+06 -0)
(251325 5.29704e+06 -0)
(262018 5.33581e+06 -0)
(273043 5.3762e+06 -0)
(284419 5.41826e+06 -0)
(296170 5.46205e+06 -0)
(308318 5.50762e+06 -0)
(320891 5.55504e+06 -0)
(333915 5.60436e+06 -0)
(347420 5.65565e+06 -0)
(361437 5.70898e+06 -0)
(376001 5.76443e+06 -0)
(391149 5.82207e+06 -0)
(406920 5.88201e+06 -0)
(423358 5.94431e+06 -0)
(440509 6.00909e+06 -0)
(458424 6.07645e+06 -0)
(477157 6.1465e+06 -0)
(496769 6.21935e+06 -0)
(517325 6.29513e+06 -0)
(538896 6.37399e+06 -0)
(561561 6.45606e+06 -0)
(585403 6.5415e+06 -0)
(610518 6.63049e+06 -0)
(637008 6.72319e+06 -0)
(664987 6.81981e+06 -0)
(694581 6.92055e+06 -0)
(725928 7.02564e+06 -0)
(759183 7.13533e+06 -0)
(794517 7.24987e+06 -0)
(832120 7.36955e+06 -0)
(872207 7.49468e+06 -0)
(915016 7.62559e+06 -0)
(960816 7.76266e+06 -0)
(1.00991e+06 7.90626e+06 -0)
(1.06264e+06 8.05685e+06 -0)
(1.11939e+06 8.21487e+06 -0)
(1.1806e+06 8.38086e+06 -0)
(1.24677e+06 8.55536e+06 -0)
(1.31849e+06 8.739e+06 -0)
(1.3964e+06 8.93244e+06 -0)
(1.48127e+06 9.13641e+06 -0)
(1.57398e+06 9.35173e+06 -0)
(1.67556e+06 9.57928e+06 -0)
(1.7872e+06 9.82002e+06 -0)
(1.91032e+06 1.0075e+07 -0)
(2.04655e+06 1.03454e+07 -0)
(2.19788e+06 1.06325e+07 -0)
(2.36663e+06 1.09376e+07 -0)
(2.5556e+06 1.12621e+07 -0)
(2.76815e+06 1.16077e+07 -0)
(3.00836e+06 1.19758e+07 -0)
(3.28117e+06 1.23682e+07 -0)
(3.59262e+06 1.27862e+07 -0)
(3.9501e+06 1.32312e+07 -0)
(4.36273e+06 1.37039e+07 -0)
(4.84171e+06 1.42043e+07 -0)
(5.40078e+06 1.47308e+07 -0)
(6.05677e+06 1.52794e+07 -0)
(6.82992e+06 1.58424e+07 -0)
(7.74404e+06 1.64062e+07 -0)
(8.82587e+06 1.69479e+07 -0)
(1.0103e+07 1.74317e+07 -0)
(1.15988e+07 1.78032e+07 -0)
(1.33232e+07 1.7985e+07 -0)
(1.52574e+07 1.78747e+07 -0)
(1.73327e+07 1.73537e+07 -0)
(1.94134e+07 1.6315e+07 -0)
(2.13004e+07 1.47193e+07 -0)
(3753.58 4.72249e+06 -0)
(11264.2 4.72347e+06 -0)
(18785 4.72544e+06 -0)
(26323 4.72839e+06 -0)
(33885 4.73233e+06 -0)
(41478 4.73727e+06 -0)
(49109 4.7432e+06 -0)
(56785.3 4.75013e+06 -0)
(64514.1 4.75808e+06 -0)
(72302.8 4.76703e+06 -0)
(80159 4.77701e+06 -0)
(88090.4 4.78803e+06 -0)
(96105 4.80008e+06 -0)
(104211 4.81319e+06 -0)
(112417 4.82736e+06 -0)
(120731 4.84261e+06 -0)
(129163 4.85896e+06 -0)
(137722 4.87641e+06 -0)
(146417 4.89499e+06 -0)
(155260 4.91471e+06 -0)
(164259 4.93559e+06 -0)
(173427 4.95765e+06 -0)
(182774 4.98092e+06 -0)
(192314 5.00541e+06 -0)
(202058 5.03115e+06 -0)
(212020 5.05818e+06 -0)
(222215 5.08651e+06 -0)
(232656 5.11617e+06 -0)
(243359 5.14721e+06 -0)
(254342 5.17964e+06 -0)
(265621 5.21352e+06 -0)
(277215 5.24886e+06 -0)
(289144 5.28573e+06 -0)
(301430 5.32415e+06 -0)
(314093 5.36417e+06 -0)
(327159 5.40585e+06 -0)
(340652 5.44922e+06 -0)
(354599 5.49436e+06 -0)
(369031 5.5413e+06 -0)
(383978 5.59012e+06 -0)
(399474 5.64088e+06 -0)
(415554 5.69364e+06 -0)
(432258 5.74849e+06 -0)
(449627 5.80549e+06 -0)
(467706 5.86474e+06 -0)
(486545 5.92631e+06 -0)
(506196 5.9903e+06 -0)
(526715 6.05681e+06 -0)
(548166 6.12595e+06 -0)
(570616 6.19783e+06 -0)
(594138 6.27257e+06 -0)
(618813 6.3503e+06 -0)
(644729 6.43117e+06 -0)
(671980 6.5153e+06 -0)
(700674 6.60288e+06 -0)
(730925 6.69406e+06 -0)
(762860 6.78903e+06 -0)
(796621 6.88798e+06 -0)
(832362 6.99113e+06 -0)
(870255 7.09869e+06 -0)
(910492 7.21093e+06 -0)
(953284 7.32809e+06 -0)
(998869 7.45046e+06 -0)
(1.04751e+06 7.57836e+06 -0)
(1.09951e+06 7.7121e+06 -0)
(1.15519e+06 7.85205e+06 -0)
(1.21493e+06 7.99859e+06 -0)
(1.27916e+06 8.15215e+06 -0)
(1.34836e+06 8.31317e+06 -0)
(1.42307e+06 8.48216e+06 -0)
(1.50392e+06 8.65964e+06 -0)
(1.59162e+06 8.84618e+06 -0)
(1.687e+06 9.04242e+06 -0)
(1.79098e+06 9.24902e+06 -0)
(1.90467e+06 9.46672e+06 -0)
(2.02934e+06 9.69628e+06 -0)
(2.16645e+06 9.93854e+06 -0)
(2.31774e+06 1.01944e+07 -0)
(2.48524e+06 1.04647e+07 -0)
(2.67134e+06 1.07505e+07 -0)
(2.87886e+06 1.10527e+07 -0)
(3.11119e+06 1.13722e+07 -0)
(3.37231e+06 1.171e+07 -0)
(3.66704e+06 1.20665e+07 -0)
(4.0011e+06 1.24424e+07 -0)
(4.38138e+06 1.28373e+07 -0)
(4.8161e+06 1.32505e+07 -0)
(5.31507e+06 1.36798e+07 -0)
(5.88988e+06 1.41214e+07 -0)
(6.55403e+06 1.45687e+07 -0)
(7.32283e+06 1.50112e+07 -0)
(8.21291e+06 1.54332e+07 -0)
(9.24097e+06 1.5811e+07 -0)
(1.04213e+07 1.61112e+07 -0)
(1.17611e+07 1.6288e+07 -0)
(1.32542e+07 1.62827e+07 -0)
(1.48711e+07 1.6026e+07 -0)
(1.65502e+07 1.5448e+07 -0)
(1.8193e+07 1.44972e+07 -0)
(1.96739e+07 1.31691e+07 -0)
(4243.65 4.71449e+06 -0)
(12734.8 4.71546e+06 -0)
(21237.5 4.71742e+06 -0)
(29759.5 4.72035e+06 -0)
(38308.5 4.72426e+06 -0)
(46892.4 4.72916e+06 -0)
(55519.1 4.73505e+06 -0)
(64196.7 4.74193e+06 -0)
(72933.4 4.74981e+06 -0)
(81737.5 4.7587e+06 -0)
(90617.5 4.76861e+06 -0)
(99582.2 4.77954e+06 -0)
(108640 4.7915e+06 -0)
(117802 4.8045e+06 -0)
(127075 4.81857e+06 -0)
(136470 4.8337e+06 -0)
(145998 4.84991e+06 -0)
(155668 4.86722e+06 -0)
(165492 4.88565e+06 -0)
(175481 4.90521e+06 -0)
(185647 4.92592e+06 -0)
(196002 4.9478e+06 -0)
(206559 4.97086e+06 -0)
(217331 4.99515e+06 -0)
(228334 5.02067e+06 -0)
(239581 5.04745e+06 -0)
(251089 5.07553e+06 -0)
(262875 5.10493e+06 -0)
(274954 5.13567e+06 -0)
(287348 5.1678e+06 -0)
(300074 5.20135e+06 -0)
(313153 5.23636e+06 -0)
(326608 5.27285e+06 -0)
(340463 5.31088e+06 -0)
(354741 5.35049e+06 -0)
(369471 5.39173e+06 -0)
(384679 5.43464e+06 -0)
(400397 5.47927e+06 -0)
(416656 5.52569e+06 -0)
(433493 5.57395e+06 -0)
(450943 5.62411e+06 -0)
(469048 5.67623e+06 -0)
(487849 5.7304e+06 -0)
(507395 5.78667e+06 -0)
(527734 5.84514e+06 -0)
(548920 5.90588e+06 -0)
(571013 5.96898e+06 -0)
(594076 6.03454e+06 -0)
(618177 6.10266e+06 -0)
(643391 6.17345e+06 -0)
(669799 6.24702e+06 -0)
(697490 6.32349e+06 -0)
(726560 6.40299e+06 -0)
(757116 6.48567e+06 -0)
(789272 6.57166e+06 -0)
(823156 6.66114e+06 -0)
(858908 6.75426e+06 -0)
(896680 6.85121e+06 -0)
(936643 6.95219e+06 -0)
(978985 7.0574e+06 -0)
(1.02391e+06 7.16706e+06 -0)
(1.07166e+06 7.28142e+06 -0)
(1.12247e+06 7.40073e+06 -0)
(1.17665e+06 7.52527e+06 -0)
(1.23451e+06 7.65533e+06 -0)
(1.2964e+06 7.79123e+06 -0)
(1.36274e+06 7.93332e+06 -0)
(1.43397e+06 8.08195e+06 -0)
(1.51061e+06 8.23753e+06 -0)
(1.59324e+06 8.40046e+06 -0)
(1.68251e+06 8.57121e+06 -0)
(1.77918e+06 8.75024e+06 -0)
(1.88411e+06 8.93806e+06 -0)
(1.99828e+06 9.13523e+06 -0)
(2.12281e+06 9.34229e+06 -0)
(2.25902e+06 9.55983e+06 -0)
(2.40841e+06 9.78848e+06 -0)
(2.57273e+06 1.00288e+07 -0)
(2.75401e+06 1.02815e+07 -0)
(2.95462e+06 1.0547e+07 -0)
(3.17734e+06 1.08259e+07 -0)
(3.42541e+06 1.11186e+07 -0)
(3.70267e+06 1.14252e+07 -0)
(4.01357e+06 1.17457e+07 -0)
(4.36337e+06 1.20794e+07 -0)
(4.75821e+06 1.24252e+07 -0)
(5.20522e+06 1.27809e+07 -0)
(5.71259e+06 1.3143e+07 -0)
(6.28965e+06 1.35063e+07 -0)
(6.94664e+06 1.38626e+07 -0)
(7.69446e+06 1.42007e+07 -0)
(8.5438e+06 1.45043e+07 -0)
(9.50385e+06 1.47517e+07 -0)
(1.058e+07 1.4914e+07 -0)
(1.17703e+07 1.4955e+07 -0)
(1.30612e+07 1.48317e+07 -0)
(1.44227e+07 1.44986e+07 -0)
(1.58039e+07 1.3915e+07 -0)
(1.71345e+07 1.30568e+07 -0)
(1.83322e+07 1.1931e+07 -0)
(4729.87 4.70552e+06 -0)
(14193.9 4.70648e+06 -0)
(23670.7 4.70842e+06 -0)
(33168.9 4.71133e+06 -0)
(42697.1 4.71521e+06 -0)
(52263.9 4.72007e+06 -0)
(61878.3 4.72591e+06 -0)
(71549.1 4.73273e+06 -0)
(81285.3 4.74054e+06 -0)
(91096.3 4.74936e+06 -0)
(100991 4.75918e+06 -0)
(110980 4.77001e+06 -0)
(121073 4.78187e+06 -0)
(131280 4.79476e+06 -0)
(141611 4.8087e+06 -0)
(152077 4.8237e+06 -0)
(162690 4.83977e+06 -0)
(173461 4.85693e+06 -0)
(184402 4.87518e+06 -0)
(195526 4.89456e+06 -0)
(206845 4.91508e+06 -0)
(218374 4.93675e+06 -0)
(230127 4.9596e+06 -0)
(242119 4.98365e+06 -0)
(254365 5.00892e+06 -0)
(266882 5.03544e+06 -0)
(279687 5.06323e+06 -0)
(292799 5.09233e+06 -0)
(306236 5.12275e+06 -0)
(320021 5.15455e+06 -0)
(334172 5.18773e+06 -0)
(348715 5.22235e+06 -0)
(363673 5.25844e+06 -0)
(379072 5.29604e+06 -0)
(394939 5.33519e+06 -0)
(411303 5.37594e+06 -0)
(428197 5.41833e+06 -0)
(445652 5.46241e+06 -0)
(463705 5.50824e+06 -0)
(482393 5.55587e+06 -0)
(501758 5.60537e+06 -0)
(521844 5.65678e+06 -0)
(542697 5.71019e+06 -0)
(564369 5.76566e+06 -0)
(586913 5.82327e+06 -0)
(610389 5.88309e+06 -0)
(634861 5.94521e+06 -0)
(660398 6.00972e+06 -0)
(687074 6.07671e+06 -0)
(714971 6.14629e+06 -0)
(744177 6.21857e+06 -0)
(774787 6.29364e+06 -0)
(806907 6.37165e+06 -0)
(840651 6.45271e+06 -0)
(876143 6.53697e+06 -0)
(913520 6.62457e+06 -0)
(952934 6.71566e+06 -0)
(994549 6.81042e+06 -0)
(1.03855e+06 6.90902e+06 -0)
(1.08513e+06 7.01164e+06 -0)
(1.13452e+06 7.1185e+06 -0)
(1.18695e+06 7.2298e+06 -0)
(1.24272e+06 7.34577e+06 -0)
(1.30211e+06 7.46666e+06 -0)
(1.36547e+06 7.59272e+06 -0)
(1.43318e+06 7.72424e+06 -0)
(1.50565e+06 7.8615e+06 -0)
(1.58337e+06 8.00482e+06 -0)
(1.66687e+06 8.15452e+06 -0)
(1.75675e+06 8.31096e+06 -0)
(1.8537e+06 8.47449e+06 -0)
(1.95848e+06 8.6455e+06 -0)
(2.07198e+06 8.82437e+06 -0)
(2.1952e+06 9.01153e+06 -0)
(2.32928e+06 9.20737e+06 -0)
(2.47553e+06 9.4123e+06 -0)
(2.63545e+06 9.62671e+06 -0)
(2.81075e+06 9.85097e+06 -0)
(3.00344e+06 1.00854e+07 -0)
(3.21579e+06 1.03302e+07 -0)
(3.45045e+06 1.05854e+07 -0)
(3.71047e+06 1.0851e+07 -0)
(3.99937e+06 1.11266e+07 -0)
(4.3212e+06 1.14115e+07 -0)
(4.68061e+06 1.17043e+07 -0)
(5.08288e+06 1.20031e+07 -0)
(5.53396e+06 1.23048e+07 -0)
(6.04044e+06 1.26052e+07 -0)
(6.60947e+06 1.2898e+07 -0)
(7.24844e+06 1.31749e+07 -0)
(7.96455e+06 1.34245e+07 -0)
(8.76399e+06 1.36318e+07 -0)
(9.65068e+06 1.37776e+07 -0)
(1.06245e+07 1.38383e+07 -0)
(1.16787e+07 1.37861e+07 -0)
(1.27978e+07 1.35905e+07 -0)
(1.39544e+07 1.32218e+07 -0)
(1.51084e+07 1.26565e+07 -0)
(1.6209e+07 1.18841e+07 -0)
(1.72004e+07 1.09146e+07 -0)
(5211.84 4.69557e+06 -0)
(15640.2 4.69653e+06 -0)
(26082.6 4.69845e+06 -0)
(36548.4 4.70133e+06 -0)
(47047 4.70518e+06 -0)
(57588 4.70999e+06 -0)
(68181.1 4.71577e+06 -0)
(78835.9 4.72253e+06 -0)
(89562.5 4.73028e+06 -0)
(100371 4.73901e+06 -0)
(111272 4.74873e+06 -0)
(122275 4.75946e+06 -0)
(133392 4.77121e+06 -0)
(144634 4.78398e+06 -0)
(156011 4.79778e+06 -0)
(167537 4.81263e+06 -0)
(179224 4.82854e+06 -0)
(191083 4.84553e+06 -0)
(203129 4.8636e+06 -0)
(215374 4.88278e+06 -0)
(227834 4.90308e+06 -0)
(240523 4.92453e+06 -0)
(253457 4.94714e+06 -0)
(266652 4.97093e+06 -0)
(280124 4.99592e+06 -0)
(293894 5.02215e+06 -0)
(307978 5.04963e+06 -0)
(322397 5.0784e+06 -0)
(337172 5.10847e+06 -0)
(352326 5.13989e+06 -0)
(367881 5.17268e+06 -0)
(383862 5.20688e+06 -0)
(400297 5.24252e+06 -0)
(417213 5.27965e+06 -0)
(434639 5.31829e+06 -0)
(452608 5.3585e+06 -0)
(471152 5.40032e+06 -0)
(490310 5.4438e+06 -0)
(510117 5.48899e+06 -0)
(530617 5.53594e+06 -0)
(551853 5.5847e+06 -0)
(573873 5.63534e+06 -0)
(596727 5.68792e+06 -0)
(620470 5.74251e+06 -0)
(645160 5.79918e+06 -0)
(670863 5.858e+06 -0)
(697645 5.91904e+06 -0)
(725581 5.98241e+06 -0)
(754751 6.04818e+06 -0)
(785243 6.11644e+06 -0)
(817150 6.1873e+06 -0)
(850575 6.26087e+06 -0)
(885630 6.33725e+06 -0)
(922437 6.41656e+06 -0)
(961128 6.49894e+06 -0)
(1.00185e+06 6.5845e+06 -0)
(1.04476e+06 6.6734e+06 -0)
(1.09003e+06 6.76579e+06 -0)
(1.13787e+06 6.86182e+06 -0)
(1.18847e+06 6.96166e+06 -0)
(1.24207e+06 7.06549e+06 -0)
(1.29893e+06 7.1735e+06 -0)
(1.35934e+06 7.28589e+06 -0)
(1.4236e+06 7.40287e+06 -0)
(1.49209e+06 7.52467e+06 -0)
(1.56518e+06 7.6515e+06 -0)
(1.64332e+06 7.78363e+06 -0)
(1.72699e+06 7.9213e+06 -0)
(1.81675e+06 8.06479e+06 -0)
(1.9132e+06 8.21436e+06 -0)
(2.01705e+06 8.3703e+06 -0)
(2.12907e+06 8.53288e+06 -0)
(2.25014e+06 8.70241e+06 -0)
(2.38127e+06 8.87914e+06 -0)
(2.52358e+06 9.06336e+06 -0)
(2.67837e+06 9.25528e+06 -0)
(2.84709e+06 9.4551e+06 -0)
(3.0314e+06 9.66296e+06 -0)
(3.2332e+06 9.8789e+06 -0)
(3.45465e+06 1.01028e+07 -0)
(3.6982e+06 1.03345e+07 -0)
(3.96664e+06 1.05734e+07 -0)
(4.26314e+06 1.08188e+07 -0)
(4.59126e+06 1.10694e+07 -0)
(4.95499e+06 1.13233e+07 -0)
(5.35873e+06 1.15781e+07 -0)
(5.80729e+06 1.18302e+07 -0)
(6.30576e+06 1.20749e+07 -0)
(6.85935e+06 1.23057e+07 -0)
(7.4731e+06 1.25145e+07 -0)
(8.15132e+06 1.26905e+07 -0)
(8.89693e+06 1.28206e+07 -0)
(9.71041e+06 1.28886e+07 -0)
(1.05884e+07 1.28755e+07 -0)
(1.15224e+07 1.27606e+07 -0)
(1.2497e+07 1.25224e+07 -0)
(1.34886e+07 1.21417e+07 -0)
(1.44662e+07 1.1605e+07 -0)
(1.53926e+07 1.09087e+07 -0)
(1.62287e+07 1.00625e+07 -0)
(5689.13 4.68467e+06 -0)
(17072.5 4.68562e+06 -0)
(28471 4.68752e+06 -0)
(39895 4.69037e+06 -0)
(51354.5 4.69418e+06 -0)
(62860.1 4.69894e+06 -0)
(74422.1 4.70467e+06 -0)
(86051.1 4.71136e+06 -0)
(97757.9 4.71902e+06 -0)
(109553 4.72766e+06 -0)
(121449 4.73728e+06 -0)
(133456 4.7479e+06 -0)
(145586 4.75952e+06 -0)
(157851 4.77216e+06 -0)
(170264 4.78581e+06 -0)
(182838 4.8005e+06 -0)
(195585 4.81624e+06 -0)
(208519 4.83303e+06 -0)
(221656 4.85091e+06 -0)
(235009 4.86987e+06 -0)
(248594 4.88994e+06 -0)
(262427 4.91114e+06 -0)
(276525 4.93349e+06 -0)
(290906 4.957e+06 -0)
(305588 4.9817e+06 -0)
(320590 5.00761e+06 -0)
(335934 5.03475e+06 -0)
(351639 5.06315e+06 -0)
(367730 5.09285e+06 -0)
(384229 5.12386e+06 -0)
(401162 5.15622e+06 -0)
(418557 5.18996e+06 -0)
(436440 5.22512e+06 -0)
(454843 5.26173e+06 -0)
(473796 5.29983e+06 -0)
(493335 5.33946e+06 -0)
(513496 5.38066e+06 -0)
(534316 5.42349e+06 -0)
(555838 5.46798e+06 -0)
(578105 5.51418e+06 -0)
(601165 5.56216e+06 -0)
(625067 5.61196e+06 -0)
(649867 5.66365e+06 -0)
(675623 5.71729e+06 -0)
(702396 5.77294e+06 -0)
(730256 5.83067e+06 -0)
(759274 5.89057e+06 -0)
(789529 5.9527e+06 -0)
(821107 6.01714e+06 -0)
(854099 6.08399e+06 -0)
(888605 6.15334e+06 -0)