/*--------------------------------*- C++ -*----------------------------------*\
  =========                 |
  \\      /  F ield         | OpenFOAM: The Open Source CFD Toolbox
   \\    /   O peration     | Website:  https://openfoam.org
    \\  /    A nd           | Version:  7
     \\/     M anipulation  |
\*---------------------------------------------------------------------------*/
FoamFile
{
    version     2.0;
    format      ascii;
    class       volScalarField;
    location    "2e-13";
    object      ne;
}
// * * * * * * * * * * * * * * * * * * * * * * * * * * * * * * * * * * * * * //

dimensions      [0 -3 0 0 0 0 0];

internalField   nonuniform List<scalar> 
15066
(
1.00251e+13
1.00251e+13
1.00251e+13
1.00251e+13
1.00251e+13
1.00251e+13
1.00252e+13
1.00252e+13
1.00253e+13
1.00253e+13
1.00254e+13
1.00254e+13
1.00255e+13
1.00256e+13
1.00256e+13
1.00257e+13
1.00258e+13
1.00259e+13
1.0026e+13
1.00261e+13
1.00262e+13
1.00263e+13
1.00265e+13
1.00266e+13
1.00267e+13
1.00269e+13
1.0027e+13
1.00272e+13
1.00274e+13
1.00276e+13
1.00277e+13
1.00279e+13
1.00281e+13
1.00283e+13
1.00286e+13
1.00288e+13
1.0029e+13
1.00293e+13
1.00295e+13
1.00298e+13
1.00301e+13
1.00304e+13
1.00307e+13
1.0031e+13
1.00313e+13
1.00317e+13
1.0032e+13
1.00324e+13
1.00328e+13
1.00332e+13
1.00336e+13
1.0034e+13
1.00345e+13
1.0035e+13
1.00354e+13
1.0036e+13
1.00365e+13
1.00371e+13
1.00377e+13
1.00383e+13
1.00389e+13
1.00396e+13
1.00403e+13
1.0041e+13
1.00418e+13
1.00426e+13
1.00435e+13
1.00444e+13
1.00454e+13
1.00464e+13
1.00475e+13
1.00486e+13
1.00498e+13
1.00511e+13
1.00525e+13
1.0054e+13
1.00556e+13
1.00572e+13
1.00591e+13
1.0061e+13
1.00632e+13
1.00655e+13
1.00681e+13
1.00708e+13
1.00739e+13
1.00773e+13
1.00811e+13
1.00854e+13
1.00902e+13
1.00957e+13
1.01019e+13
1.01092e+13
1.01176e+13
1.01273e+13
1.01383e+13
1.01505e+13
1.01633e+13
1.01764e+13
1.01858e+13
1.0187e+13
1.00251e+13
1.00251e+13
1.00251e+13
1.00251e+13
1.00251e+13
1.00251e+13
1.00252e+13
1.00252e+13
1.00252e+13
1.00253e+13
1.00253e+13
1.00254e+13
1.00255e+13
1.00255e+13
1.00256e+13
1.00257e+13
1.00258e+13
1.00259e+13
1.0026e+13
1.00261e+13
1.00262e+13
1.00263e+13
1.00265e+13
1.00266e+13
1.00267e+13
1.00269e+13
1.0027e+13
1.00272e+13
1.00274e+13
1.00275e+13
1.00277e+13
1.00279e+13
1.00281e+13
1.00283e+13
1.00285e+13
1.00288e+13
1.0029e+13
1.00293e+13
1.00295e+13
1.00298e+13
1.00301e+13
1.00304e+13
1.00307e+13
1.0031e+13
1.00313e+13
1.00316e+13
1.0032e+13
1.00324e+13
1.00328e+13
1.00332e+13
1.00336e+13
1.0034e+13
1.00345e+13
1.00349e+13
1.00354e+13
1.00359e+13
1.00365e+13
1.0037e+13
1.00376e+13
1.00382e+13
1.00389e+13
1.00395e+13
1.00403e+13
1.0041e+13
1.00418e+13
1.00426e+13
1.00435e+13
1.00444e+13
1.00453e+13
1.00463e+13
1.00474e+13
1.00485e+13
1.00497e+13
1.0051e+13
1.00524e+13
1.00539e+13
1.00554e+13
1.00571e+13
1.00589e+13
1.00609e+13
1.0063e+13
1.00653e+13
1.00678e+13
1.00705e+13
1.00735e+13
1.00768e+13
1.00805e+13
1.00846e+13
1.00892e+13
1.00944e+13
1.01003e+13
1.01069e+13
1.01145e+13
1.0123e+13
1.01323e+13
1.01419e+13
1.01513e+13
1.01596e+13
1.01659e+13
1.01687e+13
1.0025e+13
1.0025e+13
1.00251e+13
1.00251e+13
1.00251e+13
1.00251e+13
1.00252e+13
1.00252e+13
1.00252e+13
1.00253e+13
1.00253e+13
1.00254e+13
1.00255e+13
1.00255e+13
1.00256e+13
1.00257e+13
1.00258e+13
1.00259e+13
1.0026e+13
1.00261e+13
1.00262e+13
1.00263e+13
1.00264e+13
1.00266e+13
1.00267e+13
1.00269e+13
1.0027e+13
1.00272e+13
1.00273e+13
1.00275e+13
1.00277e+13
1.00279e+13
1.00281e+13
1.00283e+13
1.00285e+13
1.00288e+13
1.0029e+13
1.00292e+13
1.00295e+13
1.00298e+13
1.003e+13
1.00303e+13
1.00306e+13
1.00309e+13
1.00313e+13
1.00316e+13
1.0032e+13
1.00323e+13
1.00327e+13
1.00331e+13
1.00335e+13
1.0034e+13
1.00344e+13
1.00349e+13
1.00354e+13
1.00359e+13
1.00364e+13
1.0037e+13
1.00376e+13
1.00382e+13
1.00388e+13
1.00395e+13
1.00402e+13
1.00409e+13
1.00417e+13
1.00425e+13
1.00434e+13
1.00443e+13
1.00452e+13
1.00462e+13
1.00473e+13
1.00484e+13
1.00496e+13
1.00509e+13
1.00523e+13
1.00537e+13
1.00553e+13
1.00569e+13
1.00587e+13
1.00606e+13
1.00627e+13
1.00649e+13
1.00674e+13
1.00701e+13
1.0073e+13
1.00762e+13
1.00798e+13
1.00837e+13
1.00881e+13
1.0093e+13
1.00986e+13
1.01047e+13
1.01117e+13
1.01193e+13
1.01274e+13
1.01356e+13
1.01436e+13
1.01505e+13
1.01552e+13
1.01569e+13
1.0025e+13
1.0025e+13
1.0025e+13
1.00251e+13
1.00251e+13
1.00251e+13
1.00251e+13
1.00252e+13
1.00252e+13
1.00253e+13
1.00253e+13
1.00254e+13
1.00254e+13
1.00255e+13
1.00256e+13
1.00257e+13
1.00258e+13
1.00259e+13
1.0026e+13
1.00261e+13
1.00262e+13
1.00263e+13
1.00264e+13
1.00265e+13
1.00267e+13
1.00268e+13
1.0027e+13
1.00272e+13
1.00273e+13
1.00275e+13
1.00277e+13
1.00279e+13
1.00281e+13
1.00283e+13
1.00285e+13
1.00287e+13
1.0029e+13
1.00292e+13
1.00295e+13
1.00297e+13
1.003e+13
1.00303e+13
1.00306e+13
1.00309e+13
1.00312e+13
1.00316e+13
1.00319e+13
1.00323e+13
1.00327e+13
1.00331e+13
1.00335e+13
1.00339e+13
1.00344e+13
1.00348e+13
1.00353e+13
1.00358e+13
1.00364e+13
1.00369e+13
1.00375e+13
1.00381e+13
1.00388e+13
1.00394e+13
1.00401e+13
1.00409e+13
1.00416e+13
1.00424e+13
1.00433e+13
1.00442e+13
1.00451e+13
1.00461e+13
1.00472e+13
1.00483e+13
1.00495e+13
1.00507e+13
1.00521e+13
1.00535e+13
1.0055e+13
1.00566e+13
1.00584e+13
1.00603e+13
1.00623e+13
1.00645e+13
1.00669e+13
1.00695e+13
1.00723e+13
1.00754e+13
1.00788e+13
1.00826e+13
1.00867e+13
1.00913e+13
1.00964e+13
1.0102e+13
1.01081e+13
1.01148e+13
1.01216e+13
1.01283e+13
1.01346e+13
1.014e+13
1.01437e+13
1.01452e+13
1.0025e+13
1.0025e+13
1.0025e+13
1.0025e+13
1.0025e+13
1.00251e+13
1.00251e+13
1.00251e+13
1.00252e+13
1.00252e+13
1.00253e+13
1.00253e+13
1.00254e+13
1.00255e+13
1.00256e+13
1.00256e+13
1.00257e+13
1.00258e+13
1.00259e+13
1.0026e+13
1.00261e+13
1.00263e+13
1.00264e+13
1.00265e+13
1.00267e+13
1.00268e+13
1.0027e+13
1.00271e+13
1.00273e+13
1.00275e+13
1.00276e+13
1.00278e+13
1.0028e+13
1.00282e+13
1.00285e+13
1.00287e+13
1.00289e+13
1.00292e+13
1.00294e+13
1.00297e+13
1.003e+13
1.00303e+13
1.00306e+13
1.00309e+13
1.00312e+13
1.00315e+13
1.00319e+13
1.00323e+13
1.00326e+13
1.0033e+13
1.00334e+13
1.00339e+13
1.00343e+13
1.00348e+13
1.00353e+13
1.00358e+13
1.00363e+13
1.00369e+13
1.00374e+13
1.0038e+13
1.00387e+13
1.00393e+13
1.004e+13
1.00407e+13
1.00415e+13
1.00423e+13
1.00432e+13
1.0044e+13
1.0045e+13
1.0046e+13
1.0047e+13
1.00481e+13
1.00493e+13
1.00505e+13
1.00518e+13
1.00532e+13
1.00547e+13
1.00563e+13
1.0058e+13
1.00599e+13
1.00618e+13
1.0064e+13
1.00663e+13
1.00688e+13
1.00715e+13
1.00744e+13
1.00777e+13
1.00812e+13
1.0085e+13
1.00893e+13
1.00939e+13
1.00989e+13
1.01043e+13
1.01101e+13
1.01158e+13
1.01214e+13
1.01264e+13
1.01306e+13
1.01337e+13
1.01351e+13
1.0025e+13
1.0025e+13
1.0025e+13
1.0025e+13
1.0025e+13
1.0025e+13
1.00251e+13
1.00251e+13
1.00252e+13
1.00252e+13
1.00253e+13
1.00253e+13
1.00254e+13
1.00254e+13
1.00255e+13
1.00256e+13
1.00257e+13
1.00258e+13
1.00259e+13
1.0026e+13
1.00261e+13
1.00262e+13
1.00264e+13
1.00265e+13
1.00266e+13
1.00268e+13
1.00269e+13
1.00271e+13
1.00272e+13
1.00274e+13
1.00276e+13
1.00278e+13
1.0028e+13
1.00282e+13
1.00284e+13
1.00286e+13
1.00289e+13
1.00291e+13
1.00294e+13
1.00296e+13
1.00299e+13
1.00302e+13
1.00305e+13
1.00308e+13
1.00311e+13
1.00315e+13
1.00318e+13
1.00322e+13
1.00326e+13
1.0033e+13
1.00334e+13
1.00338e+13
1.00342e+13
1.00347e+13
1.00352e+13
1.00357e+13
1.00362e+13
1.00368e+13
1.00373e+13
1.00379e+13
1.00386e+13
1.00392e+13
1.00399e+13
1.00406e+13
1.00414e+13
1.00422e+13
1.0043e+13
1.00439e+13
1.00448e+13
1.00458e+13
1.00468e+13
1.00479e+13
1.0049e+13
1.00502e+13
1.00515e+13
1.00529e+13
1.00544e+13
1.00559e+13
1.00576e+13
1.00594e+13
1.00613e+13
1.00633e+13
1.00655e+13
1.00679e+13
1.00705e+13
1.00733e+13
1.00763e+13
1.00796e+13
1.00832e+13
1.00871e+13
1.00912e+13
1.00957e+13
1.01004e+13
1.01053e+13
1.01102e+13
1.01148e+13
1.01188e+13
1.01221e+13
1.01247e+13
1.01261e+13
1.00249e+13
1.00249e+13
1.00249e+13
1.0025e+13
1.0025e+13
1.0025e+13
1.0025e+13
1.00251e+13
1.00251e+13
1.00252e+13
1.00252e+13
1.00253e+13
1.00253e+13
1.00254e+13
1.00255e+13
1.00256e+13
1.00257e+13
1.00258e+13
1.00259e+13
1.0026e+13
1.00261e+13
1.00262e+13
1.00263e+13
1.00264e+13
1.00266e+13
1.00267e+13
1.00269e+13
1.0027e+13
1.00272e+13
1.00274e+13
1.00276e+13
1.00278e+13
1.0028e+13
1.00282e+13
1.00284e+13
1.00286e+13
1.00288e+13
1.00291e+13
1.00293e+13
1.00296e+13
1.00299e+13
1.00302e+13
1.00304e+13
1.00308e+13
1.00311e+13
1.00314e+13
1.00318e+13
1.00321e+13
1.00325e+13
1.00329e+13
1.00333e+13
1.00337e+13
1.00342e+13
1.00346e+13
1.00351e+13
1.00356e+13
1.00361e+13
1.00367e+13
1.00372e+13
1.00378e+13
1.00384e+13
1.00391e+13
1.00398e+13
1.00405e+13
1.00412e+13
1.0042e+13
1.00428e+13
1.00437e+13
1.00446e+13
1.00455e+13
1.00465e+13
1.00476e+13
1.00487e+13
1.00499e+13
1.00512e+13
1.00525e+13
1.00539e+13
1.00555e+13
1.00571e+13
1.00588e+13
1.00606e+13
1.00626e+13
1.00647e+13
1.0067e+13
1.00694e+13
1.00721e+13
1.00749e+13
1.0078e+13
1.00812e+13
1.00847e+13
1.00885e+13
1.00924e+13
1.00965e+13
1.01007e+13
1.01048e+13
1.01086e+13
1.01119e+13
1.01146e+13
1.01166e+13
1.0118e+13
1.00249e+13
1.00249e+13
1.00249e+13
1.00249e+13
1.00249e+13
1.0025e+13
1.0025e+13
1.0025e+13
1.00251e+13
1.00251e+13
1.00252e+13
1.00252e+13
1.00253e+13
1.00254e+13
1.00254e+13
1.00255e+13
1.00256e+13
1.00257e+13
1.00258e+13
1.00259e+13
1.0026e+13
1.00261e+13
1.00263e+13
1.00264e+13
1.00265e+13
1.00267e+13
1.00268e+13
1.0027e+13
1.00272e+13
1.00273e+13
1.00275e+13
1.00277e+13
1.00279e+13
1.00281e+13
1.00283e+13
1.00285e+13
1.00288e+13
1.0029e+13
1.00293e+13
1.00295e+13
1.00298e+13
1.00301e+13
1.00304e+13
1.00307e+13
1.0031e+13
1.00313e+13
1.00317e+13
1.0032e+13
1.00324e+13
1.00328e+13
1.00332e+13
1.00336e+13
1.00341e+13
1.00345e+13
1.0035e+13
1.00355e+13
1.0036e+13
1.00365e+13
1.00371e+13
1.00377e+13
1.00383e+13
1.00389e+13
1.00396e+13
1.00403e+13
1.0041e+13
1.00418e+13
1.00426e+13
1.00435e+13
1.00444e+13
1.00453e+13
1.00463e+13
1.00473e+13
1.00484e+13
1.00496e+13
1.00508e+13
1.00521e+13
1.00535e+13
1.00549e+13
1.00565e+13
1.00582e+13
1.00599e+13
1.00618e+13
1.00638e+13
1.0066e+13
1.00683e+13
1.00708e+13
1.00734e+13
1.00762e+13
1.00792e+13
1.00824e+13
1.00857e+13
1.00892e+13
1.00928e+13
1.00963e+13
1.00998e+13
1.0103e+13
1.01057e+13
1.01079e+13
1.01096e+13
1.01107e+13
1.00248e+13
1.00248e+13
1.00249e+13
1.00249e+13
1.00249e+13
1.00249e+13
1.00249e+13
1.0025e+13
1.0025e+13
1.00251e+13
1.00251e+13
1.00252e+13
1.00253e+13
1.00253e+13
1.00254e+13
1.00255e+13
1.00256e+13
1.00257e+13
1.00258e+13
1.00259e+13
1.0026e+13
1.00261e+13
1.00262e+13
1.00263e+13
1.00265e+13
1.00266e+13
1.00268e+13
1.00269e+13
1.00271e+13
1.00273e+13
1.00275e+13
1.00276e+13
1.00278e+13
1.0028e+13
1.00283e+13
1.00285e+13
1.00287e+13
1.00289e+13
1.00292e+13
1.00295e+13
1.00297e+13
1.003e+13
1.00303e+13
1.00306e+13
1.00309e+13
1.00313e+13
1.00316e+13
1.00319e+13
1.00323e+13
1.00327e+13
1.00331e+13
1.00335e+13
1.0034e+13
1.00344e+13
1.00349e+13
1.00354e+13
1.00359e+13
1.00364e+13
1.0037e+13
1.00375e+13
1.00381e+13
1.00388e+13
1.00394e+13
1.00401e+13
1.00408e+13
1.00416e+13
1.00424e+13
1.00432e+13
1.00441e+13
1.0045e+13
1.0046e+13
1.0047e+13
1.00481e+13
1.00492e+13
1.00504e+13
1.00516e+13
1.0053e+13
1.00544e+13
1.00559e+13
1.00575e+13
1.00592e+13
1.0061e+13
1.00629e+13
1.00649e+13
1.00671e+13
1.00694e+13
1.00718e+13
1.00744e+13
1.00771e+13
1.008e+13
1.00829e+13
1.0086e+13
1.00891e+13
1.00922e+13
1.00952e+13
1.00979e+13
1.01002e+13
1.0102e+13
1.01033e+13
1.01042e+13
1.00248e+13
1.00248e+13
1.00248e+13
1.00248e+13
1.00248e+13
1.00249e+13
1.00249e+13
1.00249e+13
1.0025e+13
1.0025e+13
1.00251e+13
1.00251e+13
1.00252e+13
1.00253e+13
1.00253e+13
1.00254e+13
1.00255e+13
1.00256e+13
1.00257e+13
1.00258e+13
1.00259e+13
1.0026e+13
1.00262e+13
1.00263e+13
1.00264e+13
1.00266e+13
1.00267e+13
1.00269e+13
1.0027e+13
1.00272e+13
1.00274e+13
1.00276e+13
1.00278e+13
1.0028e+13
1.00282e+13
1.00284e+13
1.00286e+13
1.00289e+13
1.00291e+13
1.00294e+13
1.00296e+13
1.00299e+13
1.00302e+13
1.00305e+13
1.00308e+13
1.00312e+13
1.00315e+13
1.00318e+13
1.00322e+13
1.00326e+13
1.0033e+13
1.00334e+13
1.00338e+13
1.00343e+13
1.00347e+13
1.00352e+13
1.00357e+13
1.00363e+13
1.00368e+13
1.00374e+13
1.0038e+13
1.00386e+13
1.00392e+13
1.00399e+13
1.00406e+13
1.00414e+13
1.00421e+13
1.0043e+13
1.00438e+13
1.00447e+13
1.00456e+13
1.00466e+13
1.00477e+13
1.00488e+13
1.00499e+13
1.00511e+13
1.00524e+13
1.00538e+13
1.00552e+13
1.00568e+13
1.00584e+13
1.00601e+13
1.00619e+13
1.00638e+13
1.00658e+13
1.00679e+13
1.00702e+13
1.00726e+13
1.0075e+13
1.00776e+13
1.00802e+13
1.00829e+13
1.00857e+13
1.00883e+13
1.00909e+13
1.00932e+13
1.00951e+13
1.00967e+13
1.00978e+13
1.00985e+13
1.00247e+13
1.00247e+13
1.00247e+13
1.00248e+13
1.00248e+13
1.00248e+13
1.00248e+13
1.00249e+13
1.00249e+13
1.0025e+13
1.0025e+13
1.00251e+13
1.00251e+13
1.00252e+13
1.00253e+13
1.00254e+13
1.00254e+13
1.00255e+13
1.00256e+13
1.00257e+13
1.00259e+13
1.0026e+13
1.00261e+13
1.00262e+13
1.00264e+13
1.00265e+13
1.00266e+13
1.00268e+13
1.0027e+13
1.00271e+13
1.00273e+13
1.00275e+13
1.00277e+13
1.00279e+13
1.00281e+13
1.00283e+13
1.00286e+13
1.00288e+13
1.0029e+13
1.00293e+13
1.00296e+13
1.00298e+13
1.00301e+13
1.00304e+13
1.00307e+13
1.00311e+13
1.00314e+13
1.00317e+13
1.00321e+13
1.00325e+13
1.00329e+13
1.00333e+13
1.00337e+13
1.00341e+13
1.00346e+13
1.00351e+13
1.00356e+13
1.00361e+13
1.00366e+13
1.00372e+13
1.00378e+13
1.00384e+13
1.0039e+13
1.00397e+13
1.00404e+13
1.00411e+13
1.00419e+13
1.00427e+13
1.00435e+13
1.00444e+13
1.00453e+13
1.00463e+13
1.00473e+13
1.00483e+13
1.00494e+13
1.00506e+13
1.00519e+13
1.00532e+13
1.00545e+13
1.0056e+13
1.00575e+13
1.00591e+13
1.00608e+13
1.00626e+13
1.00645e+13
1.00665e+13
1.00686e+13
1.00707e+13
1.0073e+13
1.00753e+13
1.00776e+13
1.008e+13
1.00824e+13
1.00847e+13
1.00869e+13
1.00889e+13
1.00906e+13
1.00919e+13
1.00929e+13
1.00936e+13
1.00247e+13
1.00247e+13
1.00247e+13
1.00247e+13
1.00247e+13
1.00247e+13
1.00248e+13
1.00248e+13
1.00249e+13
1.00249e+13
1.0025e+13
1.0025e+13
1.00251e+13
1.00251e+13
1.00252e+13
1.00253e+13
1.00254e+13
1.00255e+13
1.00256e+13
1.00257e+13
1.00258e+13
1.00259e+13
1.0026e+13
1.00261e+13
1.00263e+13
1.00264e+13
1.00266e+13
1.00267e+13
1.00269e+13
1.00271e+13
1.00272e+13
1.00274e+13
1.00276e+13
1.00278e+13
1.0028e+13
1.00282e+13
1.00285e+13
1.00287e+13
1.00289e+13
1.00292e+13
1.00295e+13
1.00297e+13
1.003e+13
1.00303e+13
1.00306e+13
1.00309e+13
1.00313e+13
1.00316e+13
1.0032e+13
1.00324e+13
1.00327e+13
1.00331e+13
1.00336e+13
1.0034e+13
1.00344e+13
1.00349e+13
1.00354e+13
1.00359e+13
1.00364e+13
1.0037e+13
1.00376e+13
1.00382e+13
1.00388e+13
1.00394e+13
1.00401e+13
1.00408e+13
1.00416e+13
1.00424e+13
1.00432e+13
1.0044e+13
1.00449e+13
1.00458e+13
1.00468e+13
1.00478e+13
1.00489e+13
1.00501e+13
1.00512e+13
1.00525e+13
1.00538e+13
1.00552e+13
1.00566e+13
1.00582e+13
1.00598e+13
1.00614e+13
1.00632e+13
1.0065e+13
1.00669e+13
1.00689e+13
1.00709e+13
1.0073e+13
1.00751e+13
1.00772e+13
1.00793e+13
1.00813e+13
1.00832e+13
1.0085e+13
1.00864e+13
1.00876e+13
1.00885e+13
1.00891e+13
1.00246e+13
1.00246e+13
1.00246e+13
1.00246e+13
1.00247e+13
1.00247e+13
1.00247e+13
1.00247e+13
1.00248e+13
1.00248e+13
1.00249e+13
1.00249e+13
1.0025e+13
1.00251e+13
1.00251e+13
1.00252e+13
1.00253e+13
1.00254e+13
1.00255e+13
1.00256e+13
1.00257e+13
1.00258e+13
1.00259e+13
1.00261e+13
1.00262e+13
1.00263e+13
1.00265e+13
1.00266e+13
1.00268e+13
1.0027e+13
1.00272e+13
1.00273e+13
1.00275e+13
1.00277e+13
1.00279e+13
1.00281e+13
1.00284e+13
1.00286e+13
1.00288e+13
1.00291e+13
1.00294e+13
1.00296e+13
1.00299e+13
1.00302e+13
1.00305e+13
1.00308e+13
1.00312e+13
1.00315e+13
1.00318e+13
1.00322e+13
1.00326e+13
1.0033e+13
1.00334e+13
1.00338e+13
1.00343e+13
1.00347e+13
1.00352e+13
1.00357e+13
1.00362e+13
1.00368e+13
1.00373e+13
1.00379e+13
1.00385e+13
1.00392e+13
1.00399e+13
1.00405e+13
1.00413e+13
1.0042e+13
1.00428e+13
1.00436e+13
1.00445e+13
1.00454e+13
1.00464e+13
1.00474e+13
1.00484e+13
1.00495e+13
1.00506e+13
1.00518e+13
1.00531e+13
1.00544e+13
1.00557e+13
1.00572e+13
1.00587e+13
1.00602e+13
1.00619e+13
1.00636e+13
1.00653e+13
1.00671e+13
1.0069e+13
1.00708e+13
1.00727e+13
1.00746e+13
1.00764e+13
1.00782e+13
1.00799e+13
1.00814e+13
1.00826e+13
1.00836e+13
1.00844e+13
1.0085e+13
1.00245e+13
1.00245e+13
1.00245e+13
1.00246e+13
1.00246e+13
1.00246e+13
1.00246e+13
1.00247e+13
1.00247e+13
1.00248e+13
1.00248e+13
1.00249e+13
1.00249e+13
1.0025e+13
1.00251e+13
1.00252e+13
1.00252e+13
1.00253e+13
1.00254e+13
1.00255e+13
1.00256e+13
1.00257e+13
1.00259e+13
1.0026e+13
1.00261e+13
1.00263e+13
1.00264e+13
1.00266e+13
1.00267e+13
1.00269e+13
1.00271e+13
1.00272e+13
1.00274e+13
1.00276e+13
1.00278e+13
1.0028e+13
1.00283e+13
1.00285e+13
1.00287e+13
1.0029e+13
1.00292e+13
1.00295e+13
1.00298e+13
1.00301e+13
1.00304e+13
1.00307e+13
1.0031e+13
1.00314e+13
1.00317e+13
1.00321e+13
1.00324e+13
1.00328e+13
1.00332e+13
1.00337e+13
1.00341e+13
1.00346e+13
1.0035e+13
1.00355e+13
1.0036e+13
1.00366e+13
1.00371e+13
1.00377e+13
1.00383e+13
1.00389e+13
1.00396e+13
1.00402e+13
1.00409e+13
1.00417e+13
1.00425e+13
1.00433e+13
1.00441e+13
1.0045e+13
1.00459e+13
1.00468e+13
1.00478e+13
1.00489e+13
1.005e+13
1.00511e+13
1.00523e+13
1.00535e+13
1.00548e+13
1.00562e+13
1.00576e+13
1.0059e+13
1.00606e+13
1.00621e+13
1.00637e+13
1.00654e+13
1.0067e+13
1.00687e+13
1.00704e+13
1.00721e+13
1.00737e+13
1.00753e+13
1.00768e+13
1.00781e+13
1.00792e+13
1.00801e+13
1.00807e+13
1.00813e+13
1.00245e+13
1.00245e+13
1.00245e+13
1.00245e+13
1.00245e+13
1.00245e+13
1.00246e+13
1.00246e+13
1.00246e+13
1.00247e+13
1.00247e+13
1.00248e+13
1.00249e+13
1.00249e+13
1.0025e+13
1.00251e+13
1.00252e+13
1.00252e+13
1.00253e+13
1.00254e+13
1.00255e+13
1.00257e+13
1.00258e+13
1.00259e+13
1.0026e+13
1.00262e+13
1.00263e+13
1.00265e+13
1.00266e+13
1.00268e+13
1.0027e+13
1.00271e+13
1.00273e+13
1.00275e+13
1.00277e+13
1.00279e+13
1.00282e+13
1.00284e+13
1.00286e+13
1.00289e+13
1.00291e+13
1.00294e+13
1.00297e+13
1.003e+13
1.00303e+13
1.00306e+13
1.00309e+13
1.00312e+13
1.00316e+13
1.00319e+13
1.00323e+13
1.00327e+13
1.00331e+13
1.00335e+13
1.00339e+13
1.00344e+13
1.00348e+13
1.00353e+13
1.00358e+13
1.00363e+13
1.00369e+13
1.00374e+13
1.0038e+13
1.00386e+13
1.00393e+13
1.00399e+13
1.00406e+13
1.00413e+13
1.00421e+13
1.00428e+13
1.00437e+13
1.00445e+13
1.00454e+13
1.00463e+13
1.00473e+13
1.00483e+13
1.00493e+13
1.00504e+13
1.00515e+13
1.00527e+13
1.00539e+13
1.00552e+13
1.00565e+13
1.00579e+13
1.00593e+13
1.00607e+13
1.00622e+13
1.00637e+13
1.00652e+13
1.00667e+13
1.00682e+13
1.00697e+13
1.00712e+13
1.00726e+13
1.00739e+13
1.0075e+13
1.0076e+13
1.00768e+13
1.00774e+13
1.00779e+13
1.00244e+13
1.00244e+13
1.00244e+13
1.00244e+13
1.00244e+13
1.00244e+13
1.00245e+13
1.00245e+13
1.00246e+13
1.00246e+13
1.00247e+13
1.00247e+13
1.00248e+13
1.00248e+13
1.00249e+13
1.0025e+13
1.00251e+13
1.00252e+13
1.00253e+13
1.00254e+13
1.00255e+13
1.00256e+13
1.00257e+13
1.00258e+13
1.00259e+13
1.00261e+13
1.00262e+13
1.00264e+13
1.00265e+13
1.00267e+13
1.00269e+13
1.0027e+13
1.00272e+13
1.00274e+13
1.00276e+13
1.00278e+13
1.0028e+13
1.00283e+13
1.00285e+13
1.00288e+13
1.0029e+13
1.00293e+13
1.00295e+13
1.00298e+13
1.00301e+13
1.00304e+13
1.00307e+13
1.00311e+13
1.00314e+13
1.00318e+13
1.00321e+13
1.00325e+13
1.00329e+13
1.00333e+13
1.00337e+13
1.00342e+13
1.00346e+13
1.00351e+13
1.00356e+13
1.00361e+13
1.00366e+13
1.00372e+13
1.00377e+13
1.00383e+13
1.00389e+13
1.00396e+13
1.00403e+13
1.0041e+13
1.00417e+13
1.00424e+13
1.00432e+13
1.0044e+13
1.00449e+13
1.00458e+13
1.00467e+13
1.00476e+13
1.00486e+13
1.00496e+13
1.00507e+13
1.00518e+13
1.0053e+13
1.00542e+13
1.00554e+13
1.00567e+13
1.0058e+13
1.00593e+13
1.00607e+13
1.0062e+13
1.00634e+13
1.00648e+13
1.00662e+13
1.00675e+13
1.00688e+13
1.00701e+13
1.00712e+13
1.00722e+13
1.00731e+13
1.00738e+13
1.00744e+13
1.00748e+13
1.00243e+13
1.00243e+13
1.00243e+13
1.00243e+13
1.00243e+13
1.00244e+13
1.00244e+13
1.00244e+13
1.00245e+13
1.00245e+13
1.00246e+13
1.00246e+13
1.00247e+13
1.00247e+13
1.00248e+13
1.00249e+13
1.0025e+13
1.00251e+13
1.00252e+13
1.00253e+13
1.00254e+13
1.00255e+13
1.00256e+13
1.00257e+13
1.00258e+13
1.0026e+13
1.00261e+13
1.00263e+13
1.00264e+13
1.00266e+13
1.00268e+13
1.00269e+13
1.00271e+13
1.00273e+13
1.00275e+13
1.00277e+13
1.00279e+13
1.00281e+13
1.00284e+13
1.00286e+13
1.00289e+13
1.00291e+13
1.00294e+13
1.00297e+13
1.003e+13
1.00303e+13
1.00306e+13
1.00309e+13
1.00312e+13
1.00316e+13
1.00319e+13
1.00323e+13
1.00327e+13
1.00331e+13
1.00335e+13
1.00339e+13
1.00344e+13
1.00349e+13
1.00353e+13
1.00358e+13
1.00363e+13
1.00369e+13
1.00374e+13
1.0038e+13
1.00386e+13
1.00392e+13
1.00399e+13
1.00406e+13
1.00413e+13
1.0042e+13
1.00427e+13
1.00435e+13
1.00443e+13
1.00452e+13
1.00461e+13
1.0047e+13
1.00479e+13
1.00489e+13
1.00499e+13
1.0051e+13
1.00521e+13
1.00532e+13
1.00543e+13
1.00555e+13
1.00567e+13
1.00579e+13
1.00592e+13
1.00604e+13
1.00617e+13
1.0063e+13
1.00642e+13
1.00654e+13
1.00666e+13
1.00677e+13
1.00687e+13
1.00697e+13
1.00704e+13
1.00711e+13
1.00715e+13
1.00719e+13
1.00242e+13
1.00242e+13
1.00242e+13
1.00242e+13
1.00242e+13
1.00243e+13
1.00243e+13
1.00243e+13
1.00244e+13
1.00244e+13
1.00245e+13
1.00245e+13
1.00246e+13
1.00247e+13
1.00247e+13
1.00248e+13
1.00249e+13
1.0025e+13
1.00251e+13
1.00252e+13
1.00253e+13
1.00254e+13
1.00255e+13
1.00256e+13
1.00257e+13
1.00259e+13
1.0026e+13
1.00262e+13
1.00263e+13
1.00265e+13
1.00266e+13
1.00268e+13
1.0027e+13
1.00272e+13
1.00274e+13
1.00276e+13
1.00278e+13
1.0028e+13
1.00282e+13
1.00285e+13
1.00287e+13
1.0029e+13
1.00293e+13
1.00295e+13
1.00298e+13
1.00301e+13
1.00304e+13
1.00307e+13
1.00311e+13
1.00314e+13
1.00318e+13
1.00321e+13
1.00325e+13
1.00329e+13
1.00333e+13
1.00337e+13
1.00342e+13
1.00346e+13
1.00351e+13
1.00356e+13
1.00361e+13
1.00366e+13
1.00371e+13
1.00377e+13
1.00383e+13
1.00389e+13
1.00395e+13
1.00402e+13
1.00408e+13
1.00416e+13
1.00423e+13
1.0043e+13
1.00438e+13
1.00446e+13
1.00455e+13
1.00463e+13
1.00472e+13
1.00482e+13
1.00491e+13
1.00501e+13
1.00511e+13
1.00522e+13
1.00533e+13
1.00544e+13
1.00555e+13
1.00566e+13
1.00578e+13
1.00589e+13
1.00601e+13
1.00612e+13
1.00623e+13
1.00634e+13
1.00645e+13
1.00655e+13
1.00664e+13
1.00672e+13
1.0068e+13
1.00685e+13
1.0069e+13
1.00693e+13
1.00241e+13
1.00241e+13
1.00241e+13
1.00241e+13
1.00242e+13
1.00242e+13
1.00242e+13
1.00242e+13
1.00243e+13
1.00243e+13
1.00244e+13
1.00244e+13
1.00245e+13
1.00246e+13
1.00246e+13
1.00247e+13
1.00248e+13
1.00249e+13
1.0025e+13
1.00251e+13
1.00252e+13
1.00253e+13
1.00254e+13
1.00255e+13
1.00256e+13
1.00258e+13
1.00259e+13
1.0026e+13
1.00262e+13
1.00264e+13
1.00265e+13
1.00267e+13
1.00269e+13
1.00271e+13
1.00273e+13
1.00275e+13
1.00277e+13
1.00279e+13
1.00281e+13
1.00283e+13
1.00286e+13
1.00288e+13
1.00291e+13
1.00294e+13
1.00297e+13
1.00299e+13
1.00302e+13
1.00306e+13
1.00309e+13
1.00312e+13
1.00316e+13
1.00319e+13
1.00323e+13
1.00327e+13
1.00331e+13
1.00335e+13
1.00339e+13
1.00344e+13
1.00348e+13
1.00353e+13
1.00358e+13
1.00363e+13
1.00368e+13
1.00374e+13
1.00379e+13
1.00385e+13
1.00391e+13
1.00398e+13
1.00404e+13
1.00411e+13
1.00418e+13
1.00425e+13
1.00433e+13
1.00441e+13
1.00449e+13
1.00457e+13
1.00465e+13
1.00474e+13
1.00483e+13
1.00493e+13
1.00502e+13
1.00512e+13
1.00522e+13
1.00532e+13
1.00543e+13
1.00553e+13
1.00564e+13
1.00574e+13
1.00585e+13
1.00595e+13
1.00606e+13
1.00616e+13
1.00625e+13
1.00634e+13
1.00642e+13
1.0065e+13
1.00657e+13
1.00662e+13
1.00666e+13
1.00669e+13
1.0024e+13
1.0024e+13
1.0024e+13
1.0024e+13
1.00241e+13
1.00241e+13
1.00241e+13
1.00241e+13
1.00242e+13
1.00242e+13
1.00243e+13
1.00243e+13
1.00244e+13
1.00245e+13
1.00245e+13
1.00246e+13
1.00247e+13
1.00248e+13
1.00249e+13
1.00249e+13
1.00251e+13
1.00252e+13
1.00253e+13
1.00254e+13
1.00255e+13
1.00256e+13
1.00258e+13
1.00259e+13
1.00261e+13
1.00262e+13
1.00264e+13
1.00266e+13
1.00267e+13
1.00269e+13
1.00271e+13
1.00273e+13
1.00275e+13
1.00277e+13
1.0028e+13
1.00282e+13
1.00284e+13
1.00287e+13
1.00289e+13
1.00292e+13
1.00295e+13
1.00298e+13
1.00301e+13
1.00304e+13
1.00307e+13
1.0031e+13
1.00314e+13
1.00317e+13
1.00321e+13
1.00325e+13
1.00328e+13
1.00333e+13
1.00337e+13
1.00341e+13
1.00346e+13
1.0035e+13
1.00355e+13
1.0036e+13
1.00365e+13
1.0037e+13
1.00376e+13
1.00382e+13
1.00387e+13
1.00394e+13
1.004e+13
1.00406e+13
1.00413e+13
1.0042e+13
1.00427e+13
1.00435e+13
1.00442e+13
1.0045e+13
1.00458e+13
1.00467e+13
1.00475e+13
1.00484e+13
1.00493e+13
1.00502e+13
1.00512e+13
1.00521e+13
1.00531e+13
1.00541e+13
1.00551e+13
1.0056e+13
1.0057e+13
1.0058e+13
1.00589e+13
1.00598e+13
1.00607e+13
1.00615e+13
1.00622e+13
1.00629e+13
1.00635e+13
1.0064e+13
1.00643e+13
1.00646e+13
1.00239e+13
1.00239e+13
1.00239e+13
1.00239e+13
1.00239e+13
1.0024e+13
1.0024e+13
1.0024e+13
1.00241e+13
1.00241e+13
1.00242e+13
1.00242e+13
1.00243e+13
1.00243e+13
1.00244e+13
1.00245e+13
1.00246e+13
1.00247e+13
1.00247e+13
1.00248e+13
1.00249e+13
1.0025e+13
1.00252e+13
1.00253e+13
1.00254e+13
1.00255e+13
1.00257e+13
1.00258e+13
1.0026e+13
1.00261e+13
1.00263e+13
1.00264e+13
1.00266e+13
1.00268e+13
1.0027e+13
1.00272e+13
1.00274e+13
1.00276e+13
1.00278e+13
1.0028e+13
1.00283e+13
1.00285e+13
1.00288e+13
1.0029e+13
1.00293e+13
1.00296e+13
1.00299e+13
1.00302e+13
1.00305e+13
1.00308e+13
1.00312e+13
1.00315e+13
1.00319e+13
1.00322e+13
1.00326e+13
1.0033e+13
1.00334e+13
1.00338e+13
1.00343e+13
1.00347e+13
1.00352e+13
1.00357e+13
1.00362e+13
1.00367e+13
1.00372e+13
1.00378e+13
1.00383e+13
1.00389e+13
1.00395e+13
1.00402e+13
1.00408e+13
1.00415e+13
1.00422e+13
1.00429e+13
1.00436e+13
1.00444e+13
1.00451e+13
1.00459e+13
1.00468e+13
1.00476e+13
1.00484e+13
1.00493e+13
1.00502e+13
1.00511e+13
1.0052e+13
1.00529e+13
1.00538e+13
1.00547e+13
1.00556e+13
1.00564e+13
1.00573e+13
1.00581e+13
1.00589e+13
1.00596e+13
1.00603e+13
1.0061e+13
1.00615e+13
1.00619e+13
1.00623e+13
1.00625e+13
1.00238e+13
1.00238e+13
1.00238e+13
1.00238e+13
1.00238e+13
1.00239e+13
1.00239e+13
1.00239e+13
1.0024e+13
1.0024e+13
1.00241e+13
1.00241e+13
1.00242e+13
1.00242e+13
1.00243e+13
1.00244e+13
1.00245e+13
1.00245e+13
1.00246e+13
1.00247e+13
1.00248e+13
1.00249e+13
1.0025e+13
1.00252e+13
1.00253e+13
1.00254e+13
1.00255e+13
1.00257e+13
1.00258e+13
1.0026e+13
1.00261e+13
1.00263e+13
1.00265e+13
1.00267e+13
1.00268e+13
1.0027e+13
1.00272e+13
1.00274e+13
1.00277e+13
1.00279e+13
1.00281e+13
1.00284e+13
1.00286e+13
1.00289e+13
1.00291e+13
1.00294e+13
1.00297e+13
1.003e+13
1.00303e+13
1.00306e+13
1.00309e+13
1.00313e+13
1.00316e+13
1.0032e+13
1.00324e+13
1.00328e+13
1.00332e+13
1.00336e+13
1.0034e+13
1.00344e+13
1.00349e+13
1.00354e+13
1.00358e+13
1.00363e+13
1.00369e+13
1.00374e+13
1.00379e+13
1.00385e+13
1.00391e+13
1.00397e+13
1.00403e+13
1.0041e+13
1.00416e+13
1.00423e+13
1.0043e+13
1.00437e+13
1.00445e+13
1.00452e+13
1.0046e+13
1.00468e+13
1.00476e+13
1.00484e+13
1.00492e+13
1.005e+13
1.00509e+13
1.00517e+13
1.00525e+13
1.00534e+13
1.00542e+13
1.0055e+13
1.00558e+13
1.00565e+13
1.00572e+13
1.00579e+13
1.00585e+13
1.00591e+13
1.00596e+13
1.006e+13
1.00603e+13
1.00606e+13
1.00237e+13
1.00237e+13
1.00237e+13
1.00237e+13
1.00237e+13
1.00238e+13
1.00238e+13
1.00238e+13
1.00239e+13
1.00239e+13
1.00239e+13
1.0024e+13
1.00241e+13
1.00241e+13
1.00242e+13
1.00243e+13
1.00243e+13
1.00244e+13
1.00245e+13
1.00246e+13
1.00247e+13
1.00248e+13
1.00249e+13
1.0025e+13
1.00251e+13
1.00253e+13
1.00254e+13
1.00255e+13
1.00257e+13
1.00258e+13
1.0026e+13
1.00262e+13
1.00263e+13
1.00265e+13
1.00267e+13
1.00269e+13
1.00271e+13
1.00273e+13
1.00275e+13
1.00277e+13
1.0028e+13
1.00282e+13
1.00284e+13
1.00287e+13
1.0029e+13
1.00292e+13
1.00295e+13
1.00298e+13
1.00301e+13
1.00304e+13
1.00307e+13
1.00311e+13
1.00314e+13
1.00318e+13
1.00321e+13
1.00325e+13
1.00329e+13
1.00333e+13
1.00337e+13
1.00341e+13
1.00346e+13
1.0035e+13
1.00355e+13
1.0036e+13
1.00365e+13
1.0037e+13
1.00375e+13
1.00381e+13
1.00386e+13
1.00392e+13
1.00398e+13
1.00404e+13
1.00411e+13
1.00417e+13
1.00424e+13
1.00431e+13
1.00438e+13
1.00445e+13
1.00452e+13
1.00459e+13
1.00467e+13
1.00475e+13
1.00482e+13
1.0049e+13
1.00498e+13
1.00506e+13
1.00513e+13
1.00521e+13
1.00529e+13
1.00536e+13
1.00543e+13
1.0055e+13
1.00557e+13
1.00563e+13
1.00569e+13
1.00574e+13
1.00579e+13
1.00582e+13
1.00585e+13
1.00587e+13
1.00236e+13
1.00236e+13
1.00236e+13
1.00236e+13
1.00236e+13
1.00236e+13
1.00237e+13
1.00237e+13
1.00237e+13
1.00238e+13
1.00238e+13
1.00239e+13
1.00239e+13
1.0024e+13
1.00241e+13
1.00241e+13
1.00242e+13
1.00243e+13
1.00244e+13
1.00245e+13
1.00246e+13
1.00247e+13
1.00248e+13
1.00249e+13
1.0025e+13
1.00251e+13
1.00253e+13
1.00254e+13
1.00256e+13
1.00257e+13
1.00259e+13
1.0026e+13
1.00262e+13
1.00264e+13
1.00265e+13
1.00267e+13
1.00269e+13
1.00271e+13
1.00273e+13
1.00276e+13
1.00278e+13
1.0028e+13
1.00283e+13
1.00285e+13
1.00288e+13
1.0029e+13
1.00293e+13
1.00296e+13
1.00299e+13
1.00302e+13
1.00305e+13
1.00308e+13
1.00312e+13
1.00315e+13
1.00319e+13
1.00322e+13
1.00326e+13
1.0033e+13
1.00334e+13
1.00338e+13
1.00343e+13
1.00347e+13
1.00352e+13
1.00356e+13
1.00361e+13
1.00366e+13
1.00371e+13
1.00377e+13
1.00382e+13
1.00388e+13
1.00393e+13
1.00399e+13
1.00405e+13
1.00411e+13
1.00418e+13
1.00424e+13
1.00431e+13
1.00438e+13
1.00444e+13
1.00451e+13
1.00459e+13
1.00466e+13
1.00473e+13
1.0048e+13
1.00487e+13
1.00495e+13
1.00502e+13
1.00509e+13
1.00516e+13
1.00523e+13
1.00529e+13
1.00536e+13
1.00542e+13
1.00548e+13
1.00553e+13
1.00558e+13
1.00562e+13
1.00565e+13
1.00568e+13
1.0057e+13
1.00234e+13
1.00235e+13
1.00235e+13
1.00235e+13
1.00235e+13
1.00235e+13
1.00235e+13
1.00236e+13
1.00236e+13
1.00237e+13
1.00237e+13
1.00238e+13
1.00238e+13
1.00239e+13
1.00239e+13
1.0024e+13
1.00241e+13
1.00242e+13
1.00243e+13
1.00243e+13
1.00244e+13
1.00245e+13
1.00246e+13
1.00248e+13
1.00249e+13
1.0025e+13
1.00251e+13
1.00253e+13
1.00254e+13
1.00256e+13
1.00257e+13
1.00259e+13
1.0026e+13
1.00262e+13
1.00264e+13
1.00266e+13
1.00268e+13
1.0027e+13
1.00272e+13
1.00274e+13
1.00276e+13
1.00278e+13
1.00281e+13
1.00283e+13
1.00286e+13
1.00288e+13
1.00291e+13
1.00294e+13
1.00297e+13
1.003e+13
1.00303e+13
1.00306e+13
1.00309e+13
1.00313e+13
1.00316e+13
1.0032e+13
1.00323e+13
1.00327e+13
1.00331e+13
1.00335e+13
1.00339e+13
1.00344e+13
1.00348e+13
1.00353e+13
1.00357e+13