/*--------------------------------*- C++ -*----------------------------------*\
  =========                 |
  \\      /  F ield         | OpenFOAM: The Open Source CFD Toolbox
   \\    /   O peration     | Website:  https://openfoam.org
    \\  /    A nd           | Version:  7
     \\/     M anipulation  |
\*---------------------------------------------------------------------------*/
FoamFile
{
    version     2.0;
    format      ascii;
    class       volVectorField;
    location    "0.0436581/dielectric";
    object      ED;
}
// * * * * * * * * * * * * * * * * * * * * * * * * * * * * * * * * * * * * * //

dimensions      [1 1 -3 0 0 -1 0];

internalField   nonuniform List<vector> 
5724
(
(-26.3163 25.7752 0)
(-80.7407 35.3451 0)
(-141.61 53.0176 0)
(-212.553 78.9385 0)
(-294.899 112.451 0)
(-392.835 149.958 0)
(-522.61 183.03 0)
(-725.017 198.628 0)
(-1073.88 182.5 0)
(-1674 123.04 0)
(-2651.8 11.3976 0)
(-4146.81 -162.305 0)
(-6306.26 -413.167 0)
(-9277.33 -763.535 0)
(-13191.7 -1242.15 0)
(-18142 -1880.69 0)
(-24155.1 -2708.16 0)
(-31169.6 -3743.78 0)
(-39028.1 -4990.09 0)
(-47487.2 -6428.5 0)
(-56246.2 -8018.97 0)
(-64986.9 -9704.46 0)
(-73415.1 -11419.6 0)
(-81291.2 -13099.8 0)
(-88448.4 -14690.1 0)
(-94795.4 -16150 0)
(-100306 -17454.6 0)
(-105005 -18594.2 0)
(-108953 -19570.6 0)
(-112229 -20393.9 0)
(-114839 -21059 0)
(-117132 -21646.4 0)
(-119497 -22258.6 0)
(-121935 -22896.9 0)
(-124451 -23562.7 0)
(-127047 -24257.7 0)
(-129727 -24983.6 0)
(-132496 -25742.3 0)
(-135357 -26535.7 0)
(-138315 -27365.9 0)
(-141374 -28235.3 0)
(-144538 -29146.5 0)
(-147815 -30102 0)
(-151207 -31104.9 0)
(-154723 -32158.3 0)
(-158367 -33265.7 0)
(-162147 -34430.8 0)
(-166070 -35657.8 0)
(-170141 -36950.6 0)
(-174373 -38315.1 0)
(-178771 -39756.2 0)
(-183346 -41279.6 0)
(-188107 -42892.1 0)
(-193065 -44600.4 0)
(-198232 -46412.7 0)
(-203620 -48337.4 0)
(-209242 -50384.3 0)
(-215114 -52563.9 0)
(-221249 -54888.1 0)
(-227666 -57370.2 0)
(-234382 -60024.9 0)
(-241417 -62868.8 0)
(-248792 -65920.6 0)
(-256529 -69200.7 0)
(-264655 -72733.9 0)
(-273197 -76546.7 0)
(-282184 -80669.9 0)
(-291647 -85138.5 0)
(-301622 -89992.6 0)
(-312147 -95278.8 0)
(-323261 -101050 0)
(-335009 -107369 0)
(-347439 -114307 0)
(-360602 -121948 0)
(-374550 -130393 0)
(-389342 -139757 0)
(-405037 -150179 0)
(-421693 -161824 0)
(-439367 -174888 0)
(-458113 -189609 0)
(-477968 -206269 0)
(-498954 -225210 0)
(-521054 -246847 0)
(-544198 -271675 0)
(-568229 -300289 0)
(-592857 -333395 0)
(-617596 -371809 0)
(-641669 -416440 0)
(-663894 -468241 0)
(-682545 -528075 0)
(-695223 -596461 0)
(-698835 -673163 0)
(-689830 -756581 0)
(-664926 -843098 0)
(-622444 -926861 0)
(-26.3141 25.73 0)
(-80.7336 35.311 0)
(-141.596 53.0022 0)
(-212.528 78.9489 0)
(-294.862 112.496 0)
(-392.789 150.058 0)
(-522.571 183.247 0)
(-725.021 199.13 0)
(-1073.99 183.663 0)
(-1674.3 125.584 0)
(-2652.42 16.5569 0)
(-4147.98 -152.519 0)
(-6308.35 -395.597 0)
(-9280.98 -733.43 0)
(-13197.9 -1192.7 0)
(-18152.4 -1802.74 0)
(-24171.7 -2590.18 0)
(-31195.3 -3572.36 0)
(-39066.3 -4750.99 0)
(-47541.7 -6108.07 0)
(-56320.8 -7605.73 0)
(-65084.8 -9190.44 0)
(-73538.9 -10801 0)
(-81442.1 -12377.4 0)
(-88626.5 -13868.3 0)
(-94999.9 -15236.2 0)
(-100535 -16458.1 0)
(-105257 -17525.2 0)
(-109224 -18439.2 0)
(-112517 -19209.7 0)
(-115141 -19832.2 0)
(-117447 -20381.8 0)
(-119824 -20954.6 0)
(-122277 -21551.7 0)
(-124807 -22174.6 0)
(-127419 -22824.8 0)
(-130117 -23503.7 0)
(-132903 -24213.2 0)
(-135783 -24955.2 0)
(-138760 -25731.6 0)
(-141840 -26544.6 0)
(-145028 -27396.5 0)
(-148328 -28289.9 0)
(-151746 -29227.6 0)
(-155289 -30212.4 0)
(-158963 -31247.7 0)
(-162774 -32336.9 0)
(-166730 -33484 0)
(-170838 -34692.7 0)
(-175108 -35968.3 0)
(-179548 -37315.6 0)
(-184168 -38740 0)
(-188977 -40247.7 0)
(-193988 -41845.1 0)
(-199212 -43539.9 0)
(-204661 -45340 0)
(-210351 -47254.6 0)
(-216295 -49293.7 0)
(-222510 -51468.5 0)
(-229013 -53791.5 0)
(-235824 -56276.6 0)
(-242964 -58939.5 0)
(-250454 -61798.1 0)
(-258318 -64871.6 0)
(-266584 -68183.5 0)
(-275281 -71759.3 0)
(-284441 -75628.2 0)
(-294097 -79823.7 0)
(-304288 -84384.3 0)
(-315055 -89354.6 0)
(-326442 -94786.1 0)
(-338500 -100738 0)
(-351280 -107281 0)
(-364843 -114498 0)
(-379250 -122484 0)
(-394569 -131355 0)
(-410873 -141249 0)
(-428235 -152328 0)
(-446735 -164790 0)
(-466448 -178876 0)
(-487444 -194874 0)
(-509780 -213139 0)
(-533485 -234107 0)
(-558542 -258306 0)
(-584857 -286387 0)
(-612211 -319141 0)
(-640185 -357511 0)
(-668057 -402600 0)
(-694653 -455635 0)
(-718148 -517852 0)
(-735848 -590229 0)
(-744051 -672995 0)
(-738186 -764804 0)
(-713623 -861671 0)
(-667504 -956280 0)
(-26.312 25.751 0)
(-80.7264 35.3394 0)
(-141.582 53.0443 0)
(-212.503 79.0111 0)
(-294.825 112.587 0)
(-392.743 150.199 0)
(-522.532 183.5 0)
(-725.024 199.664 0)
(-1074.09 184.857 0)
(-1674.59 128.155 0)
(-2653.03 21.7422 0)
(-4149.12 -142.706 0)
(-6310.37 -378 0)
(-9284.49 -703.291 0)
(-13203.9 -1143.21 0)
(-18162.2 -1724.71 0)
(-24187.4 -2472.05 0)
(-31219.6 -3400.69 0)
(-39102.3 -4511.47 0)
(-47593 -5786.98 0)
(-56390.8 -7191.5 0)
(-65176.6 -8674.97 0)
(-73654.7 -10180.5 0)
(-81583.3 -11652.5 0)
(-88793.1 -13043.4 0)
(-95191.1 -14318.7 0)
(-100749 -15457.3 0)
(-105491 -16451.2 0)
(-109477 -17302.3 0)
(-112786 -18019.6 0)
(-115423 -18599 0)
(-117740 -19110.4 0)
(-120130 -19643.5 0)
(-122596 -20199.1 0)
(-125140 -20778.6 0)
(-127767 -21383.3 0)
(-130480 -22014.8 0)
(-133282 -22674.7 0)
(-136180 -23364.6 0)
(-139176 -24086.5 0)
(-142275 -24842.4 0)
(-145484 -25634.4 0)
(-148806 -26464.9 0)
(-152249 -27336.4 0)
(-155817 -28251.7 0)
(-159518 -29213.9 0)
(-163359 -30226.1 0)
(-167346 -31292.1 0)
(-171487 -32415.2 0)
(-175793 -33600.6 0)
(-180272 -34852.5 0)
(-184934 -36176 0)
(-189789 -37576.9 0)
(-194848 -39061.3 0)
(-200125 -40636.2 0)
(-205632 -42309.1 0)
(-211384 -44088.5 0)
(-217396 -45983.8 0)
(-223685 -48005.4 0)
(-230270 -50165.2 0)
(-237170 -52476.1 0)
(-244408 -54952.9 0)
(-252005 -57612.4 0)
(-259988 -60472.6 0)
(-268386 -63555.8 0)
(-277230 -66885.9 0)
(-286552 -70490.7 0)
(-296390 -74401.8 0)
(-306785 -78655.8 0)
(-317781 -83295.2 0)
(-329427 -88369 0)
(-341778 -93934.4 0)
(-354892 -100059 0)
(-368836 -106821 0)
(-383682 -114316 0)
(-399507 -122654 0)
(-416397 -131970 0)
(-434444 -142425 0)
(-453747 -154216 0)
(-474408 -167581 0)
(-496528 -182814 0)
(-520205 -200276 0)
(-545520 -220418 0)
(-572517 -243798 0)
(-601181 -271115 0)
(-631382 -303238 0)
(-662803 -341242 0)
(-694820 -386429 0)
(-726322 -440336 0)
(-755450 -504648 0)
(-779259 -580949 0)
(-793396 -670174 0)
(-792029 -771541 0)
(-768644 -880907 0)
(-718471 -989202 0)
(-26.3099 25.772 0)
(-80.7193 35.3679 0)
(-141.567 53.0864 0)
(-212.479 79.0733 0)
(-294.788 112.678 0)
(-392.697 150.34 0)
(-522.492 183.753 0)
(-725.026 200.199 0)
(-1074.19 186.051 0)
(-1674.87 130.728 0)
(-2653.62 26.9291 0)
(-4150.22 -132.89 0)
(-6312.32 -360.395 0)
(-9287.86 -673.136 0)
(-13209.6 -1093.69 0)
(-18171.5 -1646.61 0)
(-24202.3 -2353.8 0)
(-31242.5 -3228.8 0)
(-39136.1 -4271.58 0)
(-47641 -5465.29 0)
(-56456.3 -6776.34 0)
(-65262.3 -8158.19 0)
(-73762.7 -9558.23 0)
(-81714.7 -10925.2 0)
(-88948 -12215.5 0)
(-95368.7 -13397.6 0)
(-100948 -14452.3 0)
(-105709 -15372.5 0)
(-109712 -16160.2 0)
(-113036 -16823.9 0)
(-115685 -17359.8 0)
(-118013 -17832.8 0)
(-120414 -18325.7 0)
(-122892 -18839.4 0)
(-125449 -19375.1 0)
(-128089 -19934 0)
(-130816 -20517.6 0)
(-133634 -21127.3 0)
(-136548 -21764.7 0)
(-139561 -22431.5 0)
(-142679 -23129.6 0)
(-145907 -23861 0)
(-149250 -24627.8 0)
(-152714 -25432.4 0)
(-156306 -26277.3 0)
(-160032 -27165.4 0)
(-163900 -28099.6 0)
(-167916 -29083.3 0)
(-172089 -30119.6 0)
(-176428 -31213.3 0)
(-180943 -32368.3 0)
(-185643 -33589.3 0)
(-190540 -34881.6 0)
(-195645 -36250.9 0)
(-200971 -37703.7 0)
(-206531 -39246.9 0)
(-212341 -40888.3 0)
(-218416 -42636.7 0)
(-224775 -44501.9 0)
(-231435 -46494.5 0)
(-238418 -48627 0)
(-245746 -50912.8 0)
(-253444 -53367.6 0)
(-261537 -56008.3 0)
(-270058 -58855.7 0)
(-279038 -61932 0)
(-288512 -65263.3 0)
(-298520 -68879.2 0)
(-309105 -72814.2 0)
(-320316 -77108.3 0)
(-332205 -81807.7 0)
(-344832 -86966.5 0)
(-358261 -92648.7 0)
(-372566 -98930 0)
(-387826 -105900 0)
(-404132 -113666 0)
(-421582 -122357 0)
(-440285 -132132 0)
(-460361 -143180 0)
(-481939 -155739 0)
(-505154 -170099 0)
(-530149 -186626 0)
(-557060 -205779 0)
(-586003 -228136 0)
(-617053 -254433 0)
(-650195 -285611 0)
(-685246 -322864 0)
(-721733 -367700 0)
(-758687 -421985 0)
(-794312 -487925 0)
(-825509 -567876 0)
(-847288 -663792 0)
(-852332 -775931 0)
(-831523 -900456 0)
(-776986 -1.02637e+06 0)
(-26.3077 25.793 0)
(-80.7121 35.3963 0)
(-141.553 53.1284 0)
(-212.454 79.1355 0)
(-294.751 112.77 0)
(-392.65 150.481 0)
(-522.452 184.006 0)
(-725.027 200.733 0)
(-1074.29 187.245 0)
(-1675.15 133.301 0)
(-2654.2 32.1177 0)
(-4151.28 -123.071 0)
(-6314.2 -342.783 0)
(-9291.07 -642.966 0)
(-13215 -1044.13 0)
(-18180.4 -1568.46 0)
(-24216.3 -2235.43 0)
(-31263.9 -3056.7 0)
(-39167.8 -4031.34 0)
(-47685.7 -5143.03 0)
(-56517.1 -6360.34 0)
(-65341.8 -7640.18 0)
(-73862.7 -8934.26 0)
(-81836.2 -10195.7 0)
(-89091.2 -11384.9 0)
(-95532.8 -12473.2 0)
(-101131 -13443.5 0)
(-105911 -14289.5 0)
(-109929 -15013.4 0)
(-113266 -15623 0)
(-115926 -16115.1 0)
(-118264 -16549.4 0)
(-120676 -17001.9 0)
(-123164 -17473.3 0)
(-125733 -17964.8 0)
(-128386 -18477.5 0)
(-131126 -19012.7 0)
(-133958 -19571.8 0)
(-136886 -20156.1 0)
(-139915 -20767.3 0)
(-143050 -21407 0)
(-146295 -22077.1 0)
(-149658 -22779.6 0)
(-153142 -23516.5 0)
(-156756 -24290.2 0)
(-160505 -25103.3 0)
(-164397 -25958.5 0)
(-168440 -26858.9 0)
(-172641 -27807.3 0)
(-177011 -28808 0)
(-181559 -29864.7 0)
(-186295 -30981.7 0)
(-191230 -32163.7 0)
(-196377 -33416.1 0)
(-201748 -34744.7 0)
(-207357 -36155.8 0)
(-213220 -37656.8 0)
(-219353 -39255.5 0)
(-225775 -40960.9 0)
(-232505 -42782.9 0)
(-239564 -44732.8 0)
(-246975 -46823.1 0)
(-254766 -49068.1 0)
(-262961 -51483.5 0)
(-271595 -54088.3 0)
(-280700 -56903.2 0)
(-290315 -59952.3 0)
(-300480 -63263.1 0)
(-311242 -66867.4 0)
(-322652 -70802.5 0)
(-334767 -75111.5 0)
(-347650 -79845 0)
(-361372 -85063 0)
(-376014 -90836.6 0)
(-391663 -97250.2 0)
(-408421 -104406 0)
(-426399 -112427 0)
(-445723 -121464 0)
(-466534 -131701 0)
(-488989 -143367 0)
(-513259 -156749 0)
(-539531 -172207 0)
(-568004 -190200 0)
(-598872 -211317 0)
(-632313 -236319 0)
(-668448 -266201 0)
(-707268 -302262 0)
(-748510 -346199 0)
(-791443 -400215 0)
(-834474 -467091 0)
(-874521 -550119 0)
(-906091 -652651 0)
(-920221 -776686 0)
(-904299 -919597 0)
(-845415 -1.06867e+06 0)
(-26.3056 25.814 0)
(-80.705 35.4248 0)
(-141.539 53.1705 0)
(-212.429 79.1977 0)
(-294.714 112.861 0)
(-392.604 150.622 0)
(-522.412 184.26 0)
(-725.027 201.268 0)
(-1074.39 188.44 0)
(-1675.42 135.875 0)
(-2654.75 37.3079 0)
(-4152.31 -113.249 0)
(-6316.01 -325.164 0)
(-9294.15 -612.782 0)
(-13220.1 -994.542 0)
(-18188.7 -1490.24 0)
(-24229.4 -2116.96 0)
(-31284 -2884.41 0)
(-39197.2 -3790.77 0)
(-47727.2 -4820.26 0)
(-56573.3 -5943.54 0)
(-65415.1 -7121.05 0)
(-73954.8 -8308.76 0)
(-81947.9 -9464.24 0)
(-89222.7 -10551.8 0)
(-95683.2 -11545.9 0)
(-101299 -12431.3 0)
(-106095 -13202.6 0)
(-110127 -13862.2 0)
(-113476 -14417.4 0)
(-116146 -14865.5 0)
(-118493 -15260.8 0)
(-120915 -15672.4 0)
(-123413 -16101.3 0)
(-125993 -16548.2 0)
(-128657 -17014.4 0)
(-131409 -17500.8 0)
(-134253 -18008.8 0)
(-137195 -18539.7 0)
(-140238 -19094.7 0)
(-143388 -19675.6 0)
(-146650 -20283.8 0)
(-150029 -20921.3 0)
(-153533 -21589.8 0)
(-157166 -22291.6 0)
(-160936 -23028.9 0)
(-164851 -23804.3 0)
(-168918 -24620.3 0)
(-173145 -25479.7 0)
(-177543 -26386.3 0)
(-182120 -27343.4 0)
(-186889 -28354.9 0)
(-191859 -29425.2 0)
(-197043 -30558.9 0)
(-202455 -31761.4 0)
(-208109 -33038.4 0)
(-214020 -34396.5 0)
(-220206 -35842.9 0)
(-226685 -37385.6 0)
(-233478 -39033.7 0)
(-240606 -40797.4 0)
(-248094 -42687.9 0)
(-255968 -44718.5 0)
(-264257 -46903.1 0)
(-272994 -49259.3 0)
(-282214 -51805.8 0)
(-291957 -54564.6 0)
(-302265 -57560.7 0)
(-313189 -60823.5 0)
(-324781 -64386.9 0)
(-337103 -68290.7 0)
(-350222 -72581.4 0)
(-364214 -77314.3 0)
(-379167 -82555.4 0)
(-395176 -88382.9 0)
(-412352 -94892.1 0)
(-430822 -102199 0)
(-450725 -110444 0)
(-472225 -119802 0)
(-495506 -130493 0)
(-520776 -142790 0)
(-548268 -157043 0)
(-578244 -173704 0)
(-610985 -193357 0)
(-646782 -216773 0)
(-685913 -244979 0)
(-728578 -279348 0)
(-774792 -321740 0)
(-824170 -374672 0)
(-875510 -441518 0)
(-926021 -526640 0)
(-970011 -635203 0)
(-996927 -771902 0)
(-989680 -936932 0)
(-927277 -1.11703e+06 0)
(-26.3034 25.8349 0)
(-80.6978 35.4532 0)
(-141.524 53.2125 0)
(-212.405 79.2599 0)
(-294.677 112.952 0)
(-392.557 150.763 0)
(-522.371 184.513 0)
(-725.025 201.803 0)
(-1074.48 189.635 0)
(-1675.68 138.449 0)
(-2655.3 42.4995 0)
(-4153.31 -103.423 0)
(-6317.74 -307.539 0)
(-9297.08 -582.584 0)
(-13224.9 -944.929 0)
(-18196.5 -1411.97 0)
(-24241.7 -1998.38 0)
(-31302.6 -2711.95 0)
(-39224.4 -3549.91 0)
(-47765.5 -4497.01 0)
(-56625 -5526.04 0)
(-65482.1 -6600.89 0)
(-74038.8 -7681.86 0)
(-82049.7 -8730.96 0)
(-89342.2 -9716.47 0)
(-95819.9 -10615.8 0)
(-101452 -11415.9 0)
(-106262 -12112.2 0)
(-110307 -12707.1 0)
(-113667 -13207.6 0)
(-116346 -13611.3 0)
(-118701 -13967.3 0)
(-121131 -14338 0)
(-123639 -14723.9 0)
(-126228 -15126.1 0)
(-128902 -15545.3 0)
(-131665 -15982.7 0)
(-134521 -16439.2 0)
(-137474 -16916.1 0)
(-140530 -17414.6 0)
(-143694 -17936.1 0)
(-146970 -18482 0)
(-150365 -19053.8 0)
(-153885 -19653.4 0)
(-157535 -20282.6 0)
(-161325 -20943.4 0)
(-165259 -21638 0)
(-169348 -22368.9 0)
(-173598 -23138.4 0)
(-178021 -23949.8 0)
(-182626 -24806.2 0)
(-187423 -25711 0)
(-192424 -26668.1 0)
(-197642 -27681.6 0)
(-203091 -28756.2 0)
(-208784 -29897.3 0)
(-214739 -31110.4 0)
(-220972 -32402.1 0)
(-227503 -33779.5 0)
(-234353 -35250.7 0)
(-241543 -36824.7 0)
(-249099 -38511.8 0)
(-257049 -40323.5 0)
(-265421 -42272.6 0)
(-274251 -44374.5 0)
(-283574 -46646.2 0)
(-293432 -49107.2 0)
(-303870 -51780.2 0)
(-314939 -54691.4 0)
(-326697 -57871.6 0)
(-339206 -61356.4 0)
(-352538 -65188.1 0)
(-366775 -69416.7 0)
(-382010 -74102.1 0)
(-398346 -79315.7 0)
(-415904 -85144.6 0)
(-434823 -91695 0)
(-455259 -99097 0)
(-477394 -107513 0)
(-501440 -117147 0)
(-527640 -128256 0)
(-556276 -141174 0)
(-587674 -156331 0)
(-622201 -174294 0)
(-660274 -195823 0)
(-702341 -221948 0)
(-748846 -254080 0)
(-800145 -294188 0)
(-856322 -345047 0)
(-916789 -410582 0)
(-979435 -496282 0)
(-1.03894e+06 -609501 0)
(-1.08366e+06 -758804 0)
(-1.09124e+06 -949847 0)
(-1.02801e+06 -1.17216e+06 0)
(-26.3013 25.8559 0)
(-80.6906 35.4816 0)
(-141.51 53.2546 0)
(-212.38 79.3221 0)
(-294.639 113.043 0)
(-392.511 150.904 0)
(-522.33 184.766 0)
(-725.023 202.338 0)
(-1074.57 190.83 0)
(-1675.94 141.024 0)
(-2655.82 47.6926 0)
(-4154.27 -93.5944 0)
(-6319.4 -289.907 0)
(-9299.86 -552.373 0)
(-13229.5 -895.29 0)
(-18203.9 -1333.65 0)
(-24253.2 -1879.71 0)
(-31319.8 -2539.32 0)
(-39249.4 -3308.77 0)
(-47800.4 -4173.34 0)
(-56671.9 -5107.89 0)
(-65543 -6079.81 0)
(-74114.8 -7053.72 0)
(-82141.6 -7996.06 0)
(-89449.9 -8879.11 0)
(-95942.8 -9683.38 0)
(-101589 -10397.7 0)
(-106412 -11018.6 0)
(-110468 -11548.5 0)
(-113838 -11994 0)
(-116524 -12353.1 0)
(-118887 -12669.7 0)
(-121324 -12999 0)
(-123840 -13341.9 0)
(-126438 -13698.9 0)
(-129121 -14070.9 0)
(-131893 -14458.8 0)
(-134759 -14863.6 0)
(-137723 -15286.2 0)
(-140791 -15727.8 0)
(-143966 -16189.4 0)
(-147255 -16672.4 0)
(-150664 -17178.3 0)
(-154198 -17708.3 0)
(-157864 -18264.3 0)
(-161670 -18847.9 0)
(-165623 -19461.2 0)
(-169731 -20106.1 0)
(-174001 -20784.7 0)
(-178446 -21500.1 0)
(-183074 -22254.8 0)
(-187897 -23051.7 0)
(-192926 -23894.3 0)
(-198174 -24786.3 0)
(-203655 -25731.6 0)
(-209384 -26734.9 0)
(-215377 -27801.2 0)
(-221652 -28936.1 0)
(-228228 -30145.8 0)
(-235127 -31437.5 0)
(-242372 -32818.9 0)
(-249989 -34299.1 0)
(-258005 -35888.2 0)
(-266451 -37597.2 0)
(-275363 -39439.9 0)
(-284777 -41430.9 0)
(-294738 -43587.6 0)
(-305290 -45929.8 0)
(-316488 -48480.5 0)
(-328391 -51266.8 0)
(-341066 -54320.3 0)
(-354588 -57678.3 0)
(-369043 -61385 0)
(-384529 -65493.7 0)
(-401157 -70067.9 0)
(-419058 -75185.4 0)
(-438379 -80941.3 0)
(-459293 -87452.7 0)
(-482002 -94866.4 0)
(-506742 -103368 0)
(-533790 -113193 0)
(-563475 -124647 0)
(-596184 -138133 0)
(-632377 -154185 0)
(-672594 -173525 0)
(-717468 -197154 0)
(-767708 -226471 0)
(-824066 -263482 0)
(-887216 -311116 0)
(-957429 -373729 0)
(-1.03377e+06 -457850 0)
(-1.11221e+06 -573213 0)
(-1.18128e+06 -733458 0)
(-1.21358e+06 -953585 0)
(-1.15641e+06 -1.23364e+06 0)
(-26.2991 25.8769 0)
(-80.6834 35.5101 0)
(-141.496 53.2966 0)
(-212.355 79.3842 0)
(-294.602 113.135 0)
(-392.464 151.045 0)
(-522.288 185.02 0)
(-725.02 202.873 0)
(-1074.66 192.026 0)
(-1676.19 143.6 0)
(-2656.34 52.8872 0)
(-4155.19 -83.7628 0)
(-6320.98 -272.269 0)
(-9302.5 -522.151 0)
(-13233.8 -845.627 0)
(-18210.7 -1255.29 0)
(-24263.7 -1760.96 0)
(-31335.6 -2366.54 0)
(-39272.2 -3067.4 0)
(-47832 -3849.27 0)
(-56714.3 -4689.16 0)
(-65597.6 -5557.92 0)
(-74182.8 -6424.46 0)
(-82223.4 -7259.73 0)
(-89545.6 -8039.98 0)
(-96051.9 -8748.79 0)
(-101711 -9377.01 0)
(-106544 -9922.17 0)
(-110610 -10386.9 0)
(-113988 -10777.1 0)
(-116682 -11091.4 0)
(-119051 -11368.2 0)
(-121495 -11656.1 0)
(-124018 -11955.6 0)
(-126623 -12267.3 0)
(-129313 -12591.9 0)
(-132094 -12930.1 0)
(-134969 -13282.8 0)
(-137942 -13650.8 0)
(-141020 -14035 0)
(-144205 -14436.5 0)
(-147506 -14856.3 0)
(-150926 -15295.6 0)
(-154473 -15755.6 0)
(-158153 -16237.9 0)
(-161973 -16743.8 0)
(-165941 -17275 0)
(-170065 -17833.3 0)
(-174353 -18420.4 0)
(-178817 -19038.9 0)
(-183466 -19691 0)
(-188311 -20379.1 0)
(-193364 -21106.2 0)
(-198638 -21875.3 0)
(-204146 -22690 0)
(-209905 -23554.1 0)
(-215931 -24471.9 0)
(-222242 -25448.1 0)
(-228858 -26488.1 0)
(-235801 -27597.9 0)
(-243093 -28784.1 0)
(-250762 -30054.5 0)
(-258836 -31417.5 0)
(-267345 -32882.7 0)
(-276327 -34461.7 0)
(-285821 -36167.1 0)
(-295869 -38013.6 0)
(-306521 -40018.1 0)
(-317830 -42200.4 0)
(-329860 -44583.7 0)
(-342678 -47194.9 0)
(-356364 -50066.1 0)
(-371008 -53235.4 0)
(-386713 -56748.6 0)
(-403596 -60660.7 0)
(-421794 -65038.9 0)
(-441468 -69965.9 0)
(-462801 -75543.7 0)
(-486015 -81900.8 0)
(-511367 -89200.3 0)
(-539167 -97650.7 0)
(-569786 -107525 0)
(-603673 -119183 0)
(-641372 -133110 0)
(-683549 -149969 0)
(-731020 -170691 0)
(-784774 -196605 0)
(-845994 -229659 0)
(-916038 -272792 0)
(-996270 -330565 0)
(-1.08749e+06 -410252 0)
(-1.18823e+06 -523757 0)
(-1.28969e+06 -690542 0)
(-1.36218e+06 -939739 0)
(-1.32726e+06 -1.29738e+06 0)
(-26.297 25.8979 0)
(-80.6762 35.5385 0)
(-141.481 53.3387 0)
(-212.33 79.4464 0)
(-294.565 113.226 0)
(-392.417 151.186 0)
(-522.247 185.273 0)
(-725.016 203.409 0)
(-1074.74 193.222 0)
(-1676.43 146.177 0)
(-2656.83 58.0831 0)
(-4156.08 -73.9287 0)
(-6322.49 -254.627 0)
(-9305 -491.917 0)
(-13237.8 -795.944 0)
(-18217 -1176.88 0)
(-24273.4 -1642.14 0)
(-31350 -2193.64 0)
(-39292.7 -2825.8 0)
(-47860.4 -3524.87 0)
(-56752 -4269.93 0)
(-65645.9 -5035.31 0)
(-74242.7 -5794.25 0)
(-82295.3 -6522.15 0)
(-89629.4 -7199.3 0)
(-96147 -7812.37 0)
(-101816 -8354.21 0)
(-106659 -8823.38 0)
(-110734 -9222.57 0)
(-114119 -9557.3 0)
(-116819 -9826.58 0)
(-119193 -10063.6 0)
(-121642 -10309.8 0)
(-124171 -10565.8 0)
(-126782 -10831.9 0)
(-129480 -11108.8 0)
(-132267 -11397.1 0)
(-135149 -11697.4 0)
(-138131 -12010.5 0)
(-141216 -12337.2 0)
(-144411 -12678.1 0)
(-147721 -13034.4 0)
(-151151 -13406.8 0)
(-154708 -13796.5 0)
(-158400 -14204.5 0)
(-162232 -14632.2 0)
(-166213 -15080.9 0)
(-170351 -15552 0)
(-174654 -16047 0)
(-179134 -16567.9 0)
(-183800 -17116.5 0)
(-188664 -17695 0)
(-193736 -18305.6 0)
(-199032 -18951 0)
(-204564 -19633.9 0)
(-210349 -20357.6 0)
(-216403 -21125.4 0)
(-222744 -21941.5 0)
(-229393 -22810 0)
(-236371 -23735.9 0)
(-243703 -24724.7 0)
(-251416 -25782.7 0)
(-259538 -26916.8 0)
(-268100 -28134.9 0)
(-277142 -29446.5 0)
(-286701 -30861.9 0)
(-296824 -32393.2 0)
(-307558 -34054.3 0)
(-318961 -35861.4 0)
(-331097 -37833.6 0)
(-344036 -39993.2 0)
(-357860 -42366.5 0)
(-372662 -44985 0)
(-388551 -47886.6 0)
(-405648 -51116.8 0)
(-424098 -54731.5 0)
(-444069 -58799.5 0)
(-465758 -63406.1 0)
(-489399 -68658.9 0)
(-515274 -74695.1 0)
(-543716 -81691.2 0)
(-575138 -89879 0)
(-610043 -99567.5 0)
(-649053 -111175 0)
(-692951 -125280 0)
(-742728 -142706 0)
(-799649 -164644 0)
(-865334 -192879 0)
(-941872 -230174 0)
(-1.03189e+06 -280970 0)
(-1.13842e+06 -352731 0)
(-1.26403e+06 -458672 0)
(-1.4066e+06 -623445 0)
(-1.54229e+06 -894075 0)
(-1.56671e+06 -1.34872e+06 0)
(-26.2948 25.9189 0)
(-80.669 35.5669 0)
(-141.467 53.3807 0)
(-212.306 79.5085 0)
(-294.527 113.317 0)
(-392.37 151.328 0)
(-522.205 185.526 0)
(-725.01 203.944 0)
(-1074.82 194.418 0)
(-1676.67 148.754 0)
(-2657.31 63.2803 0)
(-4156.94 -64.0919 0)
(-6323.93 -236.978 0)
(-9307.35 -461.673 0)
(-13241.6 -746.24 0)
(-18222.9 -1098.44 0)
(-24282.2 -1523.25 0)
(-31362.9 -2020.62 0)
(-39311 -2584.02 0)
(-47885.4 -3200.18 0)
(-56785 -3850.26 0)
(-65688 -4512.09 0)
(-74294.4 -5163.2 0)
(-82357.1 -5783.52 0)
(-89701.1 -6357.32 0)
(-96228.2 -6874.38 0)
(-101906 -7329.62 0)
(-106757 -7722.55 0)
(-110839 -8056.03 0)
(-114230 -8335.09 0)
(-116934 -8559.22 0)
(-119312 -8756.25 0)
(-121767 -8960.71 0)
(-124300 -9172.95 0)
(-126917 -9393.36 0)
(-129619 -9622.41 0)
(-132413 -9860.57 0)
(-135301 -10108.4 0)
(-138289 -10366.4 0)
(-141381 -10635.1 0)
(-144583 -10915.3 0)
(-147900 -11207.7 0)
(-151339 -11512.9 0)
(-154905 -11831.9 0)
(-158605 -12165.4 0)
(-162447 -12514.5 0)
(-166439 -12880.2 0)
(-170589 -13263.6 0)
(-174904 -13665.9 0)
(-179397 -14088.7 0)
(-184077 -14533.4 0)
(-188955 -15001.5 0)
(-194044 -15494.9 0)
(-199357 -16015.6 0)
(-204908 -16565.9 0)
(-210713 -17148 0)
(-216789 -17764.9 0)
(-223155 -18419.4 0)
(-229830 -19115 0)
(-236838 -19855.4 0)
(-244202 -20645 0)
(-251949 -21488.5 0)
(-260110 -22391.4 0)
(-268715 -23359.7 0)
(-277804 -24400.8 0)
(-287417 -25522.7 0)
(-297598 -26734.7 0)
(-308399 -28047.6 0)
(-319877 -29474 0)
(-332098 -31028.6 0)
(-345134 -32728.8 0)
(-359068 -34594.9 0)
(-373998 -36651.5 0)
(-390034 -38928 0)
(-407303 -41460.1 0)
(-425956 -44291.1 0)
(-446167 -47475.1 0)
(-468142 -51078.9 0)
(-492129 -55187.1 0)
(-518426 -59908.2 0)
(-547391 -65381.9 0)
(-579468 -71793 0)
(-615208 -79388.7 0)
(-655300 -88506.4 0)
(-700628 -99617.2 0)
(-752341 -113396 0)
(-811951 -130835 0)
(-881490 -153441 0)
(-963754 -183594 0)
(-1.06265e+06 -225224 0)
(-1.18374e+06 -285181 0)
(-1.33486e+06 -376326 0)
(-1.52553e+06 -525287 0)
(-1.75504e+06 -794417 0)
(-1.92303e+06 -1.34415e+06 0)
(-26.2927 25.9055 0)
(-80.6619 35.5629 0)
(-141.452 53.3929 0)
(-212.281 79.5438 0)
(-294.49 113.384 0)
(-392.323 151.447 0)
(-522.162 185.761 0)
(-725.004 204.463 0)
(-1074.9 195.6 0)
(-1676.89 151.319 0)
(-2657.77 68.4663 0)
(-4157.76 -54.264 0)
(-6325.3 -219.336 0)
(-9309.56 -431.43 0)
(-13245 -696.527 0)
(-18228.2 -1019.97 0)
(-24290.2 -1404.3 0)
(-31374.4 -1847.51 0)
(-39327.1 -2342.08 0)
(-47907.2 -2875.24 0)
(-56813.4 -3430.23 0)
(-65723.7 -3988.36 0)
(-74338.1 -4531.49 0)
(-82408.8 -5044.02 0)
(-89760.8 -5514.28 0)
(-96295.4 -5935.14 0)
(-101980 -6303.57 0)
(-106837 -6620.09 0)
(-110924 -6887.7 0)
(-114320 -7110.95 0)
(-117029 -7289.81 0)
(-119410 -7446.75 0)
(-121868 -7609.31 0)
(-124405 -7777.72 0)
(-127026 -7952.29 0)
(-129733 -8133.34 0)
(-132530 -8321.22 0)
(-135423 -8516.31 0)
(-138416 -8719 0)
(-141514 -8929.74 0)
(-144721 -9148.99 0)
(-148044 -9377.24 0)
(-151489 -9615.05 0)
(-155062 -9863 0)
(-158769 -10121.7 0)
(-162619 -10391.9 0)
(-166619 -10674.3 0)
(-170777 -10969.7 0)
(-175101 -11278.9 0)
(-179604 -11603.1 0)
(-184295 -11943.3 0)
(-189184 -12300.5 0)
(-194286 -12676.2 0)
(-199612 -13071.6 0)
(-205178 -13488.4 0)
(-210998 -13928.3 0)
(-217091 -14393.2 0)
(-223475 -14885.3 0)
(-230170 -15406.8 0)
(-237200 -15960.5 0)
(-244588 -16549.4 0)
(-252362 -17176.9 0)
(-260551 -17846.8 0)
(-269189 -18563.2 0)
(-278313 -19331.5 0)
(-287965 -20157.1 0)
(-298191 -21046.6 0)
(-309042 -22007.7 0)
(-320576 -23049 0)
(-332860 -24180.9 0)
(-345968 -25415.6 0)
(-359985 -26767.4 0)
(-375009 -28253.5 0)
(-391155 -29894.5 0)
(-408553 -31715.5 0)
(-427356 -33747.2 0)
(-447746 -36027.5 0)
(-469935 -38603.6 0)
(-494182 -41535.6 0)
(-520796 -44900.4 0)
(-550154 -48797.6 0)
(-582725 -53359.3 0)
(-619096 -58763.4 0)
(-660010 -65253.2 0)
(-706433 -73171.5 0)
(-759637 -83012.5 0)
(-821339 -95509.3 0)
(-893912 -111788 0)
(-980755 -133647 0)
(-1.08691e+06 -164100 0)
(-1.22026e+06 -208481 0)
(-1.39409e+06 -277019 0)
(-1.63307e+06 -391871 0)
(-1.98585e+06 -612424 0)
(-2.48927e+06 -1.16246e+06 0)
(-563275 -1.00133e+06 0)
(-492446 -1.06021e+06 0)
(-417500 -1.10134e+06 0)
(-344612 -1.12703e+06 0)
(-277533 -1.14137e+06 0)
(-217743 -1.14845e+06 0)
(-165216 -1.15158e+06 0)
(-119147 -1.15318e+06 0)
(-78437.7 -1.15487e+06 0)
(-41959.4 -1.15771e+06 0)
(-8664.55 -1.16237e+06 0)
(22380.3 -1.16929e+06 0)
(52001 -1.17876e+06 0)
(80940 -1.19097e+06 0)
(109885 -1.20608e+06 0)
(139501 -1.2242e+06 0)
(170462 -1.24547e+06 0)
(203479 -1.26998e+06 0)
(239343 -1.29783e+06 0)
(278957 -1.32908e+06 0)
(323381 -1.36375e+06 0)
(373884 -1.40173e+06 0)
(431989 -1.44273e+06 0)
(499520 -1.48612e+06 0)
(578615 -1.53079e+06 0)
(671659 -1.57479e+06 0)
(781060 -1.61499e+06 0)
(908722 -1.64662e+06 0)
(1.05506e+06 -1.66296e+06 0)
(1.2175e+06 -1.65558e+06 0)
(1.38888e+06 -1.61589e+06 0)
(1.55704e+06 -1.53864e+06 0)
(-600597 -1.0396e+06 0)
(-519702 -1.10286e+06 0)
(-435028 -1.14382e+06 0)
(-354462 -1.16639e+06 0)
(-282207 -1.17633e+06 0)
(-219433 -1.17886e+06 0)
(-165559 -1.17792e+06 0)
(-119260 -1.17611e+06 0)
(-79042.6 -1.1751e+06 0)
(-43507.2 -1.17588e+06 0)
(-11434.9 -1.17906e+06 0)
(18211.4 -1.18498e+06 0)
(46316.9 -1.19387e+06 0)
(73655.2 -1.20588e+06 0)
(100929 -1.22115e+06 0)
(128807 -1.23979e+06 0)
(157963 -1.26194e+06 0)
(189112 -1.28773e+06 0)
(223048 -1.3173e+06 0)
(260692 -1.35081e+06 0)
(303144 -1.38836e+06 0)
(351743 -1.42998e+06 0)
(408144 -1.47555e+06 0)
(474392 -1.52465e+06 0)
(552987 -1.57636e+06 0)
(646879 -1.62891e+06 0)
(759307 -1.67917e+06 0)
(893272 -1.72197e+06 0)
(1.05038e+06 -1.74945e+06 0)
(1.22878e+06 -1.75088e+06 0)
(1.42053e+06 -1.71426e+06 0)
(1.61011e+06 -1.63106e+06 0)
(-641792 -1.08376e+06 0)
(-548032 -1.15184e+06 0)
(-451387 -1.19154e+06 0)
(-361948 -1.20935e+06 0)
(-284184 -1.21338e+06 0)
(-218591 -1.21027e+06 0)
(-163748 -1.20449e+06 0)
(-117644 -1.19882e+06 0)
(-78315.6 -1.19482e+06 0)
(-44069.9 -1.19338e+06 0)
(-13515.1 -1.19496e+06 0)
(14480.9 -1.19981e+06 0)
(40851.1 -1.20808e+06 0)
(66388.9 -1.21987e+06 0)
(91800 -1.23526e+06 0)
(117748 -1.25439e+06 0)
(144897 -1.27737e+06 0)
(173951 -1.3044e+06 0)
(205698 -1.33566e+06 0)
(241060 -1.37139e+06 0)
(281158 -1.41181e+06 0)
(327383 -1.4571e+06 0)
(381498 -1.50736e+06 0)
(445753 -1.56243e+06 0)
(523008 -1.6217e+06 0)
(616827 -1.68369e+06 0)
(731427 -1.74547e+06 0)
(871240 -1.80168e+06 0)
(1.03964e+06 -1.84334e+06 0)
(1.23627e+06 -1.857e+06 0)
(1.45278e+06 -1.82588e+06 0)
(1.66941e+06 -1.73609e+06 0)
(-687729 -1.13566e+06 0)
(-577183 -1.20891e+06 0)
(-465696 -1.24548e+06 0)
(-366113 -1.25622e+06 0)
(-282699 -1.25247e+06 0)
(-214692 -1.24243e+06 0)
(-159451 -1.23104e+06 0)
(-114100 -1.22104e+06 0)
(-76142.9 -1.21381e+06 0)
(-43582.8 -1.21001e+06 0)
(-14867.5 -1.20993e+06 0)
(11212.7 -1.21368e+06 0)
(35622.1 -1.2213e+06 0)
(59158.7 -1.23282e+06 0)
(82518.7 -1.24832e+06 0)
(106348 -1.26788e+06 0)
(131290 -1.29166e+06 0)
(158024 -1.31986e+06 0)
(187319 -1.35275e+06 0)
(220082 -1.39063e+06 0)
(257429 -1.43387e+06 0)
(300779 -1.48282e+06 0)
(351968 -1.53781e+06 0)
(413415 -1.59902e+06 0)
(488317 -1.66625e+06 0)
(580864 -1.73853e+06 0)
(696376 -1.81336e+06 0)
(841075 -1.88554e+06 0)
(1.02088e+06 -1.9452e+06 0)
(1.23809e+06 -1.97585e+06 0)
(1.48501e+06 -1.95419e+06 0)
(1.73655e+06 -1.85746e+06 0)
(-739595 -1.19806e+06 0)
(-606601 -1.2764e+06 0)
(-476619 -1.30677e+06 0)
(-365678 -1.3072e+06 0)
(-276832 -1.29336e+06 0)
(-207162 -1.27497e+06 0)
(-152340 -1.2572e+06 0)
(-108454 -1.24248e+06 0)
(-72435 -1.23183e+06 0)
(-42002 -1.22559e+06 0)
(-15470.4 -1.22382e+06 0)
(8419.91 -1.22645e+06 0)
(30641.3 -1.2334e+06 0)
(51978.6 -1.24465e+06 0)
(73103.7 -1.26021e+06 0)
(94632.3 -1.28017e+06 0)
(117173 -1.30469e+06 0)
(141370 -1.334e+06 0)
(167954 -1.36842e+06 0)
(197799 -1.40836e+06 0)
(231993 -1.4543e+06 0)
(271945 -1.50681e+06 0)
(319521 -1.56649e+06 0)
(377251 -1.63391e+06 0)
(448607 -1.70938e+06 0)
(538369 -1.79263e+06 0)
(653022 -1.88201e+06 0)
(800925 -1.97294e+06 0)
(991474 -2.05532e+06 0)
(1.23147e+06 -2.10959e+06 0)
(1.51593e+06 -2.10386e+06 0)
(1.81369e+06 -2.00076e+06 0)
(-799054 -1.27526e+06 0)
(-635162 -1.35753e+06 0)
(-482126 -1.37658e+06 0)
(-358960 -1.36225e+06 0)
(-265509 -1.33553e+06 0)
(-195407 -1.30734e+06 0)
(-142120 -1.28249e+06 0)
(-100569 -1.26276e+06 0)
(-67138.4 -1.24859e+06 0)
(-39311.6 -1.23991e+06 0)
(-15322 -1.23645e+06 0)
(6101.81 -1.23798e+06 0)
(25911.9 -1.24429e+06 0)
(44858.9 -1.25525e+06 0)
(63573.8 -1.27086e+06 0)
(82628.5 -1.29117e+06 0)
(102584 -1.31636e+06 0)
(124036 -1.34668e+06 0)
(147662 -1.38252e+06 0)
(174278 -1.42437e+06 0)
(204919 -1.47286e+06 0)
(240942 -1.52877e+06 0)
(284185 -1.59298e+06 0)
(337211 -1.66649e+06 0)
(403661 -1.75029e+06 0)
(488793 -1.845e+06 0)
(600211 -1.95021e+06 0)
(748644 -2.06278e+06 0)
(948003 -2.17343e+06 0)
(1.21221e+06 -2.26039e+06 0)
(1.54305e+06 -2.28122e+06 0)
(1.90393e+06 -2.17468e+06 0)
(-868518 -1.37442e+06 0)
(-660636 -1.45665e+06 0)
(-479136 -1.45588e+06 0)
(-343788 -1.42083e+06 0)
(-247546 -1.37813e+06 0)
(-178870 -1.33876e+06 0)
(-128561 -1.30632e+06 0)
(-90374 -1.28145e+06 0)
(-60247.8 -1.26379e+06 0)
(-35529.6 -1.25273e+06 0)
(-14443.8 -1.24767e+06 0)
(4242.74 -1.24815e+06 0)
(21428.1 -1.25384e+06 0)
(37805.3 -1.26454e+06 0)
(53947.5 -1.28017e+06 0)
(70368.4 -1.30079e+06 0)
(87569.8 -1.32656e+06 0)
(106084 -1.35779e+06 0)
(126518 -1.39491e+06 0)
(149614 -1.43849e+06 0)
(176315 -1.48932e+06 0)
(207885 -1.54836e+06 0)
(246067 -1.61681e+06 0)
(293352 -1.69616e+06 0)