/*--------------------------------*- C++ -*----------------------------------*\
  =========                 |
  \\      /  F ield         | OpenFOAM: The Open Source CFD Toolbox
   \\    /   O peration     | Website:  https://openfoam.org
    \\  /    A nd           | Version:  7
     \\/     M anipulation  |
\*---------------------------------------------------------------------------*/
FoamFile
{
    version     2.0;
    format      ascii;
    class       volVectorField;
    location    "0.1/air";
    object      qAir;
}
// * * * * * * * * * * * * * * * * * * * * * * * * * * * * * * * * * * * * * //

dimensions      [0 -1 0 1 0 0 0];

internalField   nonuniform List<vector> 
1600
(
(58.3389 0.0223754 -0)
(58.2491 0.067415 -0)
(58.0684 0.11331 -0)
(57.7945 0.160595 -0)
(57.4241 0.209744 -0)
(56.9532 0.261148 -0)
(56.377 0.315079 -0)
(55.6903 0.371655 -0)
(54.8878 0.430799 -0)
(53.9648 0.492202 -0)
(52.9173 0.555285 -0)
(51.7429 0.619173 -0)
(50.441 0.682684 -0)
(49.014 0.744346 -0)
(47.4672 0.80244 -0)
(45.8097 0.855088 -0)
(44.0542 0.900374 -0)
(42.2174 0.936486 -0)
(40.319 0.961883 -0)
(38.3817 0.975445 -0)
(36.4296 0.976593 -0)
(34.4877 0.965354 -0)
(32.58 0.942363 -0)
(30.7288 0.908799 -0)
(28.9537 0.866263 -0)
(27.2708 0.816631 -0)
(25.6923 0.761892 -0)
(24.2264 0.704001 -0)
(22.8777 0.644764 -0)
(21.6472 0.585752 -0)
(20.5331 0.528254 -0)
(19.5316 0.473271 -0)
(18.6368 0.421519 -0)
(17.8418 0.373464 -0)
(17.139 0.329356 -0)
(16.5204 0.289272 -0)
(15.978 0.253156 -0)
(15.504 0.220853 -0)
(15.091 0.192144 -0)
(14.7321 0.166768 -0)
(58.4287 0.0668373 -0)
(58.34 0.201389 -0)
(58.1616 0.338541 -0)
(57.8909 0.479919 -0)
(57.5247 0.626977 -0)
(57.0586 0.780918 -0)
(56.4875 0.942594 -0)
(55.806 1.1124 -0)
(55.0084 1.29014 -0)
(54.0893 1.47492 -0)
(53.0443 1.66505 -0)
(51.8703 1.8579 -0)
(50.5662 2.0499 -0)
(49.1338 2.2366 -0)
(47.578 2.41276 -0)
(45.9076 2.57263 -0)
(44.1356 2.7103 -0)
(42.2789 2.82017 -0)
(40.358 2.89748 -0)
(38.3964 2.93875 -0)
(36.4195 2.94217 -0)
(34.4535 2.90781 -0)
(32.5234 2.83766 -0)
(30.6527 2.73537 -0)
(28.8616 2.60588 -0)
(27.1665 2.455 -0)
(25.5797 2.28883 -0)
(24.1093 2.11335 -0)
(22.7594 1.93407 -0)
(21.5306 1.75574 -0)
(20.4207 1.58225 -0)
(19.4249 1.41658 -0)
(18.537 1.26086 -0)
(17.7497 1.11644 -0)
(17.0548 0.984043 -0)
(16.4442 0.863848 -0)
(15.9096 0.755653 -0)
(15.443 0.658966 -0)
(15.0369 0.5731 -0)
(14.6844 0.497254 -0)
(58.6071 0.110422 -0)
(58.5208 0.332763 -0)
(58.3469 0.559547 -0)
(58.0829 0.793563 -0)
(57.7251 1.03733 -0)
(57.2689 1.29295 -0)
(56.7085 1.56198 -0)
(56.0378 1.8452 -0)
(55.2504 2.14243 -0)
(54.3397 2.45231 -0)
(53.3003 2.77209 -0)
(52.1277 3.09746 -0)
(50.8197 3.42243 -0)
(49.3769 3.73941 -0)
(47.8032 4.03938 -0)
(46.1072 4.31237 -0)
(44.3018 4.54801 -0)
(42.4046 4.73642 -0)
(40.4376 4.86913 -0)
(38.4263 4.9399 -0)
(36.3987 4.94551 -0)
(34.3832 4.88607 -0)
(32.4075 4.76511 -0)
(30.497 4.58913 -0)
(28.6734 4.36691 -0)
(26.9538 4.10866 -0)
(25.3507 3.82506 -0)
(23.8717 3.52651 -0)
(22.5201 3.22242 -0)
(21.2953 2.92089 -0)
(20.194 2.62842 -0)
(19.2102 2.34994 -0)
(18.3367 2.0889 -0)
(17.565 1.84741 -0)
(16.8864 1.62652 -0)
(16.292 1.42642 -0)
(15.7731 1.24664 -0)
(15.3214 1.08626 -0)
(14.9293 0.944037 -0)
(14.5895 0.818581 -0)
(58.8719 0.152509 -0)
(58.7892 0.459696 -0)
(58.6224 0.773321 -0)
(58.3687 1.09746 -0)
(58.0241 1.43582 -0)
(57.5832 1.79159 -0)
(57.0398 2.16718 -0)
(56.3864 2.56399 -0)
(55.6155 2.98206 -0)
(54.719 3.41979 -0)
(53.6895 3.87355 -0)
(52.5206 4.33741 -0)
(51.2081 4.80294 -0)
(49.7507 5.25921 -0)
(48.1509 5.693 -0)
(46.4162 6.08945 -0)
(44.5597 6.43294 -0)
(42.6 6.70839 -0)
(40.5614 6.90271 -0)
(38.4728 7.00623 -0)
(36.3657 7.01388 -0)
(34.2731 6.92585 -0)
(32.2265 6.74758 -0)
(30.2545 6.48912 -0)
(28.3811 6.16397 -0)
(26.6246 5.78765 -0)
(24.9975 5.37626 -0)
(23.5067 4.94519 -0)
(22.1538 4.50823 -0)
(20.9366 4.07697 -0)
(19.8497 3.6606 -0)
(18.8854 3.26588 -0)
(18.0345 2.89737 -0)
(17.2873 2.55777 -0)
(16.6339 2.24822 -0)
(16.0643 1.96868 -0)
(15.5694 1.71824 -0)
(15.1403 1.49538 -0)
(14.7692 1.29821 -0)
(14.4487 1.12463 -0)
(59.2193 0.192429 -0)
(59.1416 0.580189 -0)
(58.9847 0.976584 -0)
(58.7454 1.38712 -0)
(58.4193 1.8169 -0)
(58.0002 2.2704 -0)
(57.4809 2.75117 -0)
(56.8527 3.26151 -0)
(56.1062 3.80205 -0)
(55.2312 4.37125 -0)
(54.2179 4.96492 -0)
(53.0571 5.5757 -0)
(51.7415 6.19273 -0)
(50.2669 6.80148 -0)
(48.6335 7.38396 -0)
(46.8472 7.91949 -0)
(44.9207 8.38591 -0)
(42.8743 8.76149 -0)
(40.7354 9.02709 -0)
(38.5375 9.16842 -0)
(36.3183 9.17794 -0)
(34.1169 9.05587 -0)
(31.9708 8.81024 -0)
(29.9134 8.4558 -0)
(27.9719 8.0122 -0)
(26.1661 7.50173 -0)
(24.5082 6.94713 -0)
(23.0036 6.36976 -0)
(21.6518 5.78832 -0)
(20.4477 5.21818 -0)
(19.3829 4.67114 -0)
(18.447 4.15559 -0)
(17.6286 3.67695 -0)
(16.9159 3.23808 -0)
(16.2973 2.8399 -0)
(15.762 2.48184 -0)
(15.2998 2.16225 -0)
(14.9014 1.87882 -0)
(14.5585 1.6288 -0)
(14.2638 1.40927 -0)
(59.6445 0.229446 -0)
(59.5733 0.692047 -0)
(59.4293 1.16571 -0)
(59.209 1.65755 -0)
(58.9074 2.17427 -0)
(58.5175 2.72193 -0)
(58.0309 3.30558 -0)
(57.4373 3.92883 -0)
(56.7252 4.59337 -0)
(55.8819 5.29824 -0)
(54.8939 6.03916 -0)
(53.7484 6.80774 -0)
(52.4339 7.5908 -0)
(50.9419 8.37 -0)
(49.2689 9.12188 -0)
(47.4182 9.81862 -0)
(45.4017 10.4297 -0)
(43.2412 10.9246 -0)
(40.9684 11.2757 -0)
(38.6236 11.4624 -0)
(36.2532 11.4736 -0)
(33.9053 11.3095 -0)
(31.6264 10.9817 -0)
(29.4565 10.5116 -0)
(27.427 9.9273 -0)
(25.5596 9.25994 -0)
(23.8656 8.54078 -0)
(22.3479 7.79839 -0)
(21.0022 7.05712 -0)
(19.8195 6.33629 -0)
(18.7871 5.65017 -0)
(17.8912 5.00841 -0)
(17.117 4.41674 -0)
(16.4503 3.8777 -0)
(15.8776 3.39148 -0)
(15.3867 2.95652 -0)
(14.9664 2.57011 -0)
(14.6069 2.22884 -0)
(14.2997 1.9289 -0)
(14.0372 1.66639 -0)
(60.1408 0.262753 -0)
(60.0779 0.792846 -0)
(59.9502 1.33665 -0)
(59.754 1.90308 -0)
(59.4837 2.50071 -0)
(59.1315 3.13749 -0)
(58.6878 3.82037 -0)
(58.1405 4.55487 -0)
(57.4756 5.34435 -0)
(56.677 6.18919 -0)
(55.7274 7.08576 -0)
(54.6088 8.02529 -0)
(53.3038 8.99273 -0)
(51.798 9.96586 -0)
(50.0821 10.9149 -0)
(48.155 11.8034 -0)
(46.0267 12.5898 -0)
(43.7203 13.2313 -0)
(41.2733 13.6888 -0)
(38.7354 13.932 -0)
(36.1653 13.9445 -0)
(33.625 13.7267 -0)
(31.173 13.2955 -0)
(28.859 12.6817 -0)
(26.7202 11.9254 -0)
(24.7796 11.07 -0)
(23.0467 10.1576 -0)
(21.52 9.22591 -0)
(20.1897 8.30548 -0)
(19.0408 7.41969 -0)
(18.055 6.58484 -0)
(17.2136 5.81115 -0)
(16.4979 5.10388 -0)
(15.8906 4.46451 -0)
(15.3762 3.89179 -0)
(14.9407 3.38265 -0)
(14.5721 2.93284 -0)
(14.2602 2.53752 -0)
(13.996 2.19158 -0)
(13.7723 1.88995 -0)
(60.7001 0.291471 -0)
(60.6472 0.879939 -0)
(60.5395 1.48495 -0)
(60.3731 2.11742 -0)
(60.1418 2.78801 -0)
(59.8372 3.50693 -0)
(59.4483 4.28356 -0)
(58.9613 5.12594 -0)
(58.3595 6.03997 -0)
(57.6233 7.0284 -0)
(56.73 8.08939 -0)
(55.6554 9.21493 -0)
(54.3745 10.389 -0)
(52.8642 11.5858 -0)
(51.1065 12.7686 -0)
(49.093 13.8903 -0)
(46.8296 14.8947 -0)
(44.3402 15.7222 -0)
(41.669 16.3162 -0)
(38.8793 16.6323 -0)
(36.0478 16.6458 -0)
(33.2563 16.3573 -0)
(30.5814 15.7917 -0)
(28.0864 14.9945 -0)
(25.8153 14.0226 -0)
(23.7918 12.9369 -0)
(22.0215 11.7939 -0)
(20.4957 10.6421 -0)
(19.196 9.5192 -0)
(18.0988 8.45213 -0)
(17.1786 7.45836 -0)
(16.4102 6.54748 -0)
(15.7703 5.72313 -0)
(15.2382 4.98466 -0)
(14.7957 4.32853 -0)
(14.4277 3.74943 -0)
(14.1212 3.24109 -0)
(13.8656 2.79682 -0)
(13.6521 2.40996 -0)
(13.4733 2.07408 -0)
(61.3122 0.314664 -0)
(61.2714 0.950486 -0)
(61.1877 1.6058 -0)
(61.057 2.29364 -0)
(60.8732 3.02698 -0)
(60.6271 3.81865 -0)
(60.3068 4.68099 -0)
(59.8969 5.62534 -0)
(59.378 6.66121 -0)
(58.7264 7.79504 -0)
(57.914 9.02847 -0)
(56.9083 10.3561 -0)
(55.6746 11.7625 -0)
(54.1777 13.2195 -0)
(52.3866 14.6836 -0)
(50.281 16.0943 -0)
(47.8585 17.3766 -0)
(45.1418 18.4464 -0)
(42.1834 19.2216 -0)
(39.065 19.635 -0)
(35.8903 19.6493 -0)
(32.7709 19.2648 -0)
(29.8101 18.5197 -0)
(27.0899 17.4817 -0)
(24.6626 16.2338 -0)
(22.5508 14.8609 -0)
(20.7519 13.439 -0)
(19.2453 12.0295 -0)
(17.9998 10.6771 -0)
(16.9799 9.41129 -0)
(16.1504 8.24898 -0)
(15.4783 7.19728 -0)
(14.935 6.2565 -0)
(14.496 5.42246 -0)
(14.1409 4.68823 -0)
(13.8532 4.04547 -0)
(13.6195 3.48526 -0)
(13.429 2.99871 -0)
(13.2733 2.57734 -0)
(13.1455 2.21323 -0)
(61.9652 0.331363 -0)
(61.9384 1.00154 -0)
(61.8827 1.69414 -0)
(61.7943 2.42435 -0)
(61.6668 3.20763 -0)
(61.4912 4.05971 -0)
(61.255 4.99641 -0)
(60.9415 6.03322 -0)
(60.5293 7.18449 -0)
(59.9905 8.46209 -0)
(59.291 9.87341 -0)
(58.3894 11.4184 -0)
(57.238 13.0853 -0)
(55.7853 14.8464 -0)
(53.9812 16.6519 -0)
(51.786 18.4268 -0)
(49.1817 20.0708 -0)
(46.1852 21.4653 -0)
(42.8576 22.4886 -0)
(39.3071 23.0368 -0)
(35.6777 23.0515 -0)
(32.1267 22.5331 -0)
(28.7983 21.5406 -0)
(25.8006 20.1788 -0)
(23.1945 18.5701 -0)
(20.997 16.834 -0)
(19.19 15.0718 -0)
(17.7337 13.3597 -0)
(16.5778 11.7483 -0)
(15.6708 10.267 -0)
(14.9646 8.929 -0)
(14.4177 7.73615 -0)
(13.9955 6.68313 -0)
(13.6699 5.76044 -0)
(13.4188 4.95648 -0)
(13.2247 4.25896 -0)
(13.0745 3.65577 -0)
(12.9577 3.13544 -0)
(12.8666 2.68745 -0)
(12.7952 2.30231 -0)
(62.6451 0.340611 -0)
(62.6341 1.03016 -0)
(62.6105 1.74487 -0)
(62.5705 2.50198 -0)
(62.5085 3.31947 -0)
(62.4159 4.21614 -0)
(62.2803 5.21173 -0)
(62.085 6.32665 -0)
(61.8069 7.58142 -0)
(61.4154 8.99542 -0)
(60.8702 10.5847 -0)
(60.1203 12.3586 -0)
(59.1026 14.3141 -0)
(57.7442 16.4287 -0)
(55.9671 18.6507 -0)
(53.7 20.8903 -0)
(50.897 23.0147 -0)
(47.5596 24.8554 -0)
(43.7549 26.2308 -0)
(39.6279 26.9722 -0)
(35.3866 26.9869 -0)
(31.2599 26.2753 -0)
(27.4559 24.9308 -0)
(24.1195 23.1228 -0)
(21.3179 21.0338 -0)
(19.0525 18.8332 -0)
(17.2776 16.6546 -0)
(15.9217 14.5891 -0)
(14.9071 12.6893 -0)
(14.1607 10.9794 -0)
(13.6195 9.46387 -0)
(13.2325 8.1352 -0)
(12.9593 6.97944 -0)
(12.7694 5.97969 -0)
(12.6395 5.11828 -0)
(12.5525 4.37813 -0)
(12.496 3.74341 -0)
(12.4607 3.19982 -0)
(12.4402 2.73471 -0)
(12.4297 2.33698 -0)
(63.336 0.341526 -0)
(63.3426 1.03364 -0)
(63.3545 1.75319 -0)
(63.3689 2.51925 -0)
(63.3809 3.35212 -0)
(63.3834 4.27366 -0)
(63.3655 5.30771 -0)
(63.3112 6.48024 -0)
(63.198 7.81913 -0)
(62.9938 9.35344 -0)
(62.6542 11.1115 -0)
(62.1188 13.1172 -0)
(61.3081 15.3839 -0)
(60.1219 17.9036 -0)
(58.4428 20.632 -0)
(56.1499 23.4689 -0)
(53.1468 26.2421 -0)
(49.4014 28.7109 -0)
(44.9744 30.6071 -0)
(40.0631 31.6341 -0)
(34.9808 31.6485 -0)
(30.0706 30.6506 -0)
(25.6457 28.7845 -0)
(21.9035 26.3477 -0)
(18.9049 23.6091 -0)
(16.6178 20.8103 -0)
(14.9459 18.1244 -0)
(13.7684 15.6526 -0)
(12.9682 13.4406 -0)
(12.4453 11.4976 -0)
(12.1203 9.81185 -0)
(11.9333 8.36132 -0)
(11.84 7.11975 -0)
(11.8087 6.06059 -0)
(11.8172 5.15882 -0)
(11.8499 4.39188 -0)
(11.8962 3.73991 -0)
(11.949 3.18573 -0)
(12.0038 2.71458 -0)
(12.0575 2.31389 -0)
(64.0203 0.333377 -0)
(64.0458 1.00968 -0)
(64.0961 1.71498 -0)
(64.1694 2.46973 -0)
(64.2629 3.29609 -0)
(64.3715 4.21865 -0)
(64.4869 5.26522 -0)
(64.5964 6.46746 -0)
(64.6801 7.86144 -0)
(64.7077 9.48772 -0)
(64.634 11.3905 -0)
(64.3927 13.6149 -0)
(63.889 16.2006 -0)
(62.9923 19.1698 -0)
(61.5324 22.5047 -0)
(59.3101 26.1114 -0)
(56.139 29.7737 -0)
(51.9247 33.1391 -0)
(46.6781 35.8526 -0)
(40.6692 37.3087 -0)
(34.4031 37.3223 -0)
(28.396 35.894 -0)
(23.1529 33.2091 -0)
(18.944 29.8742 -0)
(15.7805 26.2448 -0)
(13.5678 22.6744 -0)
(12.1199 19.38 -0)
(11.2379 16.4565 -0)
(10.752 13.9229 -0)
(10.5319 11.7583 -0)
(10.4833 9.92465 -0)
(10.5404 8.37847 -0)
(10.6586 7.07767 -0)
(10.8084 5.9841 -0)
(10.9707 5.06452 -0)
(11.1336 4.29064 -0)
(11.2898 3.63864 -0)
(11.4354 3.08861 -0)
(11.5683 2.62399 -0)
(11.6881 2.23102 -0)
(64.6791 0.315676 -0)
(64.7242 0.956736 -0)
(64.8145 1.62734 -0)
(64.95 2.3486 -0)
(65.1299 3.14384 -0)
(65.3526 4.03965 -0)
(65.6143 5.06707 -0)
(65.9074 6.26294 -0)
(66.2183 7.67144 -0)
(66.5229 9.3455 -0)
(66.7814 11.3479 -0)
(66.9289 13.7512 -0)
(66.863 16.6338 -0)
(66.426 20.0704 -0)
(65.3844 24.1057 -0)
(63.4189 28.6982 -0)
(60.1745 33.6024 -0)
(55.4803 38.219 -0)
(49.1439 42.3557 -0)
(41.5328 44.4256 -0)
(33.5661 44.4382 -0)
(25.9574 42.3938 -0)
(19.626 38.2837 -0)
(14.9392 33.6952 -0)
(11.7051 28.8215 -0)
(9.75295 24.2625 -0)
(8.72802 20.2646 -0)
(8.31136 16.8704 -0)
(8.27009 14.0361 -0)
(8.44707 11.6883 -0)
(8.74046 9.74995 -0)
(9.0863 8.15025 -0)
(9.44562 6.82835 -0)
(9.7956 5.7336 -0)
(10.1238 4.82454 -0)
(10.424 4.06754 -0)
(10.6941 3.43538 -0)
(10.9344 2.90607 -0)
(11.1462 2.46176 -0)
(11.3317 2.08795 -0)
(65.2927 0.288267 -0)
(65.3575 0.874244 -0)
(65.4879 1.48903 -0)
(65.686 2.15348 -0)
(65.954 2.89103 -0)
(66.2947 3.72905 -0)
(66.7102 4.70046 -0)
(67.2008 5.8458 -0)
(67.7627 7.21586 -0)
(68.3842 8.87491 -0)
(69.0397 10.9046 -0)
(69.6786 13.4081 -0)
(70.2082 16.5132 -0)
(70.4642 20.3721 -0)
(70.1603 25.1494 -0)
(68.8068 30.9735 -0)
(65.6598 37.7185 -0)
(60.678 43.779 -0)
(52.8847 50.9254 -0)
(42.7518 53.5999 -0)
(32.3713 53.6112 -0)
(22.2415 50.9595 -0)
(14.4543 43.8367 -0)
(9.48185 37.8014 -0)
(6.34775 31.0836 -0)
(5.0109 25.2894 -0)
(4.72787 20.5456 -0)
(5.00938 16.7246 -0)
(5.5699 13.6627 -0)
(6.24579 11.2089 -0)
(6.94521 9.23658 -0)
(7.61877 7.64422 -0)
(8.24195 6.35189 -0)
(8.80462 5.29741 -0)
(9.30469 4.43251 -0)
(9.74445 3.71959 -0)
(10.1284 3.12929 -0)
(10.4618 2.63852 -0)
(10.7502 2.22902 -0)
(10.9991 1.88622 -0)
(65.8416 0.251414 -0)
(65.925 0.762942 -0)
(66.0938 1.30107 -0)
(66.3519 1.88526 -0)
(66.7054 2.53775 -0)
(67.162 3.28505 -0)
(67.731 4.15991 -0)
(68.4228 5.20394 -0)
(69.2474 6.47129 -0)
(70.2116 8.03368 -0)
(71.3145 9.98748 -0)
(72.5375 12.4633 -0)
(73.8271 15.6388 -0)
(75.0622 19.7555 -0)
(75.9858 25.1463 -0)
(75.988 32.3279 -0)
(72.98 42.5191 -0)
(68.6872 48.253 -0)
(58.9649 51.4669 -0)
(44.2186 52.9374 -0)
(30.9257 52.9471 -0)
(16.183 51.4961 -0)
(6.46789 48.3024 -0)
(2.1861 42.59 -0)
(-0.806835 32.422 -0)
(-0.784987 25.266 -0)
(0.163179 19.9039 -0)
(1.42837 15.8196 -0)
(2.75435 12.6811 -0)
(4.02099 10.2479 -0)
(5.17583 8.34331 -0)
(6.20161 6.83815 -0)
(7.09881 5.63756 -0)
(7.87622 4.67166 -0)
(8.54593 3.88848 -0)
(9.12077 3.24902 -0)
(9.61307 2.72367 -0)
(10.0341 2.28972 -0)
(10.3939 1.92958 -0)
(10.7011 1.62946 -0)
(66.3071 0.205863 -0)
(66.4071 0.625039 -0)
(66.6103 1.06705 -0)
(66.9226 1.54874 -0)
(67.3538 2.08966 -0)
(67.9168 2.7135 -0)
(68.6291 3.45018 -0)
(69.5122 4.33877 -0)
(70.5924 5.43168 -0)
(71.9004 6.80106 -0)
(73.4693 8.54832 -0)
(75.3299 10.8188 -0)
(77.5004 13.8232 -0)
(79.9716 17.8648 -0)
(82.7326 23.3523 -0)
(86.1796 30.6726 -0)
(81.5849 39.2771 -0)
(69.6258 42.7469 -0)
(57.5691 41.252 -0)
(44.232 41.2359 -0)
(30.9299 41.2436 -0)
(17.5968 41.2755 -0)
(5.54819 42.7866 -0)
(-6.39851 39.3342 -0)
(-10.9762 30.7484 -0)
(-7.50719 23.4488 -0)
(-4.71854 17.9844 -0)
(-2.21342 13.9689 -0)
(-0.00185754 10.9943 -0)
(1.90799 8.75817 -0)
(3.5355 7.05065 -0)
(4.91302 5.72751 -0)
(6.07546 4.68856 -0)
(7.05553 3.86318 -0)
(7.88205 3.20074 -0)
(8.57963 2.66433 -0)
(9.16906 2.22663 -0)
(9.66767 1.86711 -0)
(10.09 1.57012 -0)
(10.448 1.32358 -0)
(66.6725 0.15286 -0)
(66.7862 0.464306 -0)
(67.0175 0.793329 -0)
(67.3746 1.15301 -0)
(67.8702 1.55865 -0)
(68.5225 2.02909 -0)
(69.3563 2.58855 -0)
(70.4043 3.26927 -0)
(71.7097 4.11562 -0)
(73.3283 5.19053 -0)
(75.3323 6.58595 -0)
(77.8124 8.44046 -0)
(80.8731 10.9704 -0)
(84.5913 14.5283 -0)
(88.7936 19.7256 -0)
(91.9129 27.7331 -0)
(85.0542 28.67 -0)
(70.662 29.7053 -0)
(57.4539 29.5583 -0)
(44.2102 29.5104 -0)
(30.9653 29.5161 -0)
(17.726 29.5755 -0)
(4.52664 29.7345 -0)
(-9.85212 28.7118 -0)
(-16.6923 27.7886 -0)
(-13.549 19.7963 -0)
(-9.31672 14.6159 -0)
(-5.56166 11.0772 -0)
(-2.45635 8.56915 -0)
(0.0773145 6.73984 -0)
(2.14516 5.37362 -0)
(3.83952 4.33267 -0)
(5.23449 3.52599 -0)
(6.3884 2.89177 -0)
(7.34708 2.38696 -0)
(8.14667 1.98093 -0)
(8.81585 1.65143 -0)
(9.37758 1.38198 -0)
(9.85032 1.16021 -0)
(10.2491 0.976677 -0)
(66.9242 0.0941289 -0)
(67.0476 0.285997 -0)
(67.299 0.488958 -0)
(67.6879 0.711307 -0)
(68.2299 0.962827 -0)
(68.9467 1.25568 -0)
(69.8693 1.60566 -0)
(71.0392 2.03414 -0)
(72.5137 2.57099 -0)
(74.3707 3.2595 -0)
(76.7192 4.16447 -0)
(79.7143 5.38669 -0)
(83.5882 7.08957 -0)
(88.7268 9.55229 -0)
(95.9375 13.2886 -0)
(95.124 19.3642 -0)
(83.5572 17.9644 -0)
(70.5141 17.8463 -0)
(57.3742 17.7655 -0)
(44.1897 17.7313 -0)
(30.995 17.7348 -0)
(17.8152 17.776 -0)
(4.68451 17.864 -0)
(-8.34435 17.9899 -0)
(-19.8917 19.3981 -0)
(-20.6799 13.3318 -0)
(-13.4376 9.60578 -0)
(-8.26017 7.15476 -0)
(-4.33918 5.46526 -0)
(-1.28755 4.25844 -0)
(1.12833 3.3713 -0)
(3.0654 2.70356 -0)
(4.63456 2.19096 -0)
(5.9165 1.79094 -0)
(6.97121 1.4744 -0)
(7.8441 1.22101 -0)
(8.5701 1.01616 -0)
(9.17646 0.849167 -0)
(9.68467 0.712075 -0)
(10.1119 0.598856 -0)
(67.0526 0.0317876 -0)
(67.181 0.0965967 -0)
(67.4428 0.165198 -0)
(67.8484 0.240437 -0)
(68.4145 0.325678 -0)
(69.1654 0.425128 -0)
(70.1348 0.544284 -0)
(71.3697 0.690629 -0)
(72.935 0.874724 -0)
(74.9217 1.11199 -0)
(77.4595 1.42575 -0)
(80.7375 1.85227 -0)
(85.0387 2.44891 -0)
(90.7903 3.30272 -0)
(98.6055 4.51241 -0)
(96.5886 5.97072 -0)
(83.5363 5.97698 -0)
(70.4631 5.94984 -0)
(57.3389 5.92598 -0)
(44.1795 5.91461 -0)
(31.0099 5.91578 -0)
(17.8552 5.92951 -0)
(4.74056 5.95582 -0)
(-8.31806 5.98556 -0)
(-21.3504 5.98212 -0)
(-23.3413 4.52692 -0)
(-15.4937 3.32071 -0)
(-9.70219 2.47083 -0)
(-5.35267 1.87869 -0)
(-2.01664 1.45734 -0)
(0.590288 1.14959 -0)
(2.65918 0.919305 -0)
(4.32186 0.743375 -0)
(5.67184 0.606604 -0)
(6.77716 0.498712 -0)
(7.68842 0.412551 -0)
(8.44401 0.343033 -0)
(9.07349 0.286453 -0)
(9.60001 0.240065 -0)
(10.0419 0.201796 -0)
(67.0526 -0.0317876 -0)
(67.181 -0.0965967 -0)
(67.4428 -0.165198 -0)
(67.8484 -0.240437 -0)
(68.4145 -0.325678 -0)
(69.1654 -0.425128 -0)
(70.1348 -0.544284 -0)
(71.3697 -0.690629 -0)
(72.935 -0.874724 -0)
(74.9217 -1.11199 -0)
(77.4595 -1.42575 -0)
(80.7375 -1.85227 -0)
(85.0387 -2.44891 -0)
(90.7903 -3.30272 -0)
(98.6055 -4.51241 -0)
(96.5886 -5.97072 -0)
(83.5363 -5.97698 -0)
(70.4631 -5.94984 -0)
(57.3389 -5.92598 -0)
(44.1795 -5.91461 -0)
(31.0099 -5.91578 -0)
(17.8552 -5.92951 -0)
(4.74056 -5.95582 -0)
(-8.31806 -5.98556 -0)
(-21.3504 -5.98212 -0)
(-23.3413 -4.52692 -0)
(-15.4937 -3.32071 -0)
(-9.70219 -2.47083 -0)
(-5.35267 -1.87869 -0)
(-2.01664 -1.45734 -0)
(0.590288 -1.14959 -0)
(2.65918 -0.919305 -0)
(4.32186 -0.743375 -0)
(5.67184 -0.606604 -0)
(6.77716 -0.498712 -0)
(7.68842 -0.412551 -0)
(8.44401 -0.343033 -0)
(9.07349 -0.286453 -0)
(9.60001 -0.240065 -0)
(10.0419 -0.201796 -0)
(66.9242 -0.0941289 -0)
(67.0476 -0.285997 -0)
(67.299 -0.488958 -0)
(67.6879 -0.711307 -0)
(68.2299 -0.962827 -0)
(68.9467 -1.25568 -0)
(69.8693 -1.60566 -0)
(71.0392 -2.03414 -0)
(72.5137 -2.57099 -0)
(74.3707 -3.2595 -0)
(76.7192 -4.16447 -0)
(79.7143 -5.38669 -0)
(83.5882 -7.08957 -0)
(88.7268 -9.55229 -0)
(95.9375 -13.2886 -0)
(95.124 -19.3642 -0)
(83.5572 -17.9644 -0)
(70.5141 -17.8463 -0)
(57.3742 -17.7655 -0)
(44.1897 -17.7313 -0)
(30.995 -17.7348 -0)
(17.8152 -17.776 -0)
(4.68451 -17.864 -0)
(-8.34435 -17.9899 -0)
(-19.8917 -19.3981 -0)
(-20.6799 -13.3318 -0)
(-13.4376 -9.60578 -0)
(-8.26017 -7.15476 -0)
(-4.33918 -5.46526 -0)
(-1.28755 -4.25844 -0)
(1.12833 -3.3713 -0)
(3.0654 -2.70356 -0)
(4.63456 -2.19096 -0)
(5.9165 -1.79094 -0)
(6.97121 -1.4744 -0)
(7.8441 -1.22101 -0)
(8.5701 -1.01616 -0)
(9.17646 -0.849167 -0)
(9.68467 -0.712075 -0)
(10.1119 -0.598856 -0)
(66.6725 -0.15286 -0)
(66.7862 -0.464306 -0)
(67.0175 -0.793329 -0)
(67.3746 -1.15301 -0)
(67.8702 -1.55865 -0)
(68.5225 -2.02909 -0)
(69.3563 -2.58855 -0)
(70.4043 -3.26927 -0)
(71.7097 -4.11562 -0)
(73.3283 -5.19053 -0)
(75.3323 -6.58595 -0)
(77.8124 -8.44046 -0)
(80.8731 -10.9704 -0)
(84.5913 -14.5283 -0)
(88.7936 -19.7256 -0)
(91.9129 -27.7331 -0)
(85.0542 -28.67 -0)
(70.662 -29.7053 -0)
(57.4539 -29.5583 -0)
(44.2102 -29.5104 -0)
(30.9653 -29.5161 -0)
(17.726 -29.5755 -0)
(4.52664 -29.7345 -0)
(-9.85212 -28.7118 -0)
(-16.6923 -27.7886 -0)
(-13.549 -19.7963 -0)
(-9.31672 -14.6159 -0)
(-5.56166 -11.0772 -0)
(-2.45635 -8.56915 -0)
(0.0773145 -6.73984 -0)
(2.14516 -5.37362 -0)
(3.83952 -4.33267 -0)
(5.23449 -3.52599 -0)
(6.3884 -2.89177 -0)
(7.34708 -2.38696 -0)
(8.14667 -1.98093 -0)
(8.81585 -1.65143 -0)
(9.37758 -1.38198 -0)
(9.85032 -1.16021 -0)
(10.2491 -0.976677 -0)
(66.3071 -0.205863 -0)
(66.4071 -0.625039 -0)
(66.6103 -1.06705 -0)
(66.9226 -1.54874 -0)
(67.3538 -2.08966 -0)
(67.9168 -2.7135 -0)
(68.6291 -3.45018 -0)
(69.5122 -4.33877 -0)
(70.5924 -5.43168 -0)
(71.9004 -6.80106 -0)
(73.4693 -8.54832 -0)
(75.3299 -10.8188 -0)
(77.5004 -13.8232 -0)
(79.9716 -17.8648 -0)
(82.7326 -23.3523 -0)
(86.1796 -30.6726 -0)
(81.5849 -39.2771 -0)
(69.6258 -42.7469 -0)
(57.5691 -41.252 -0)
(44.232 -41.2359 -0)
(30.9299 -41.2436 -0)
(17.5968 -41.2755 -0)
(5.54819 -42.7866 -0)
(-6.39851 -39.3342 -0)
(-10.9762 -30.7484 -0)
(-7.50719 -23.4488 -0)
(-4.71854 -17.9844 -0)
(-2.21342 -13.9689 -0)
(-0.00185754 -10.9943 -0)
(1.90799 -8.75817 -0)
(3.5355 -7.05065 -0)
(4.91302 -5.72751 -0)
(6.07546 -4.68856 -0)
(7.05553 -3.86318 -0)
(7.88205 -3.20074 -0)
(8.57963 -2.66433 -0)
(9.16906 -2.22663 -0)
(9.66767 -1.86711 -0)
(10.09 -1.57012 -0)
(10.448 -1.32358 -0)
(65.8416 -0.251414 -0)
(65.925 -0.762942 -0)
(66.0938 -1.30107 -0)
(66.3519 -1.88526 -0)
(66.7054 -2.53775 -0)
(67.162 -3.28505 -0)
(67.731 -4.15991 -0)
(68.4228 -5.20394 -0)
(69.2474 -6.47129 -0)
(70.2116 -8.03368 -0)
(71.3145 -9.98748 -0)
(72.5375 -12.4633 -0)
(73.8271 -15.6388 -0)
(75.0622 -19.7555 -0)
(75.9858 -25.1463 -0)
(75.988 -32.3279 -0)
(72.98 -42.5191 -0)
(68.6872 -48.253 -0)
(58.9649 -51.4669 -0)
(44.2186 -52.9374 -0)
(30.9257 -52.9471 -0)
(16.183 -51.4961 -0)
(6.46789 -48.3024 -0)
(2.1861 -42.59 -0)
(-0.806835 -32.422 -0)
(-0.784987 -25.266 -0)
(0.163179 -19.9039 -0)
(1.42837 -15.8196 -0)
(2.75435 -12.6811 -0)
(4.02099 -10.2479 -0)
(5.17583 -8.34331 -0)
(6.20161 -6.83815 -0)
(7.09881 -5.63756 -0)
(7.87622 -4.67166 -0)
(8.54593 -3.88848 -0)
(9.12077 -3.24902 -0)
(9.61307 -2.72367 -0)
(10.0341 -2.28972 -0)
(10.3939 -1.92958 -0)
(10.7011 -1.62946 -0)
(65.2927 -0.288267 -0)
(65.3575 -0.874244 -0)
(65.4879 -1.48903 -0)
(65.686 -2.15348 -0)
(65.954 -2.89103 -0)
(66.2947 -3.72905 -0)
(66.7102 -4.70046 -0)
(67.2008 -5.8458 -0)
(67.7627 -7.21586 -0)
(68.3842 -8.87491 -0)
(69.0397 -10.9046 -0)
(69.6786 -13.4081 -0)
(70.2082 -16.5132 -0)
(70.4642 -20.3721 -0)
(70.1603 -25.1494 -0)
(68.8068 -30.9735 -0)
(65.6598 -37.7185 -0)
(60.678 -43.779 -0)
(52.8847 -50.9254 -0)
(42.7518 -53.5999 -0)
(32.3713 -53.6112 -0)
(22.2415 -50.9595 -0)
(14.4543 -43.8367 -0)
(9.48185 -37.8014 -0)
(6.34775 -31.0836 -0)
(5.0109 -25.2894 -0)
(4.72787 -20.5456 -0)
(5.00938 -16.7246 -0)
(5.5699 -13.6627 -0)
(6.24579 -11.2089 -0)
(6.94521 -9.23658 -0)
(7.61877 -7.64422 -0)
(8.24195 -6.35189 -0)
(8.80462 -5.29741 -0)
(9.30469 -4.43251 -0)
(9.74445 -3.71959 -0)
(10.1284 -3.12929 -0)
(10.4618 -2.63852 -0)
(10.7502 -2.22902 -0)
(10.9991 -1.88622 -0)
(64.6791 -0.315676 -0)
(64.7242 -0.956736 -0)
(64.8145 -1.62734 -0)
(64.95 -2.3486 -0)
(65.1299 -3.14384 -0)
(65.3526 -4.03965 -0)
(65.6143 -5.06707 -0)
(65.9074 -6.26294 -0)
(66.2183 -7.67144 -0)
(66.5229 -9.3455 -0)
(66.7814 -11.3479 -0)
(66.9289 -13.7512 -0)
(66.863 -16.6338 -0)
(66.426 -20.0704 -0)
(65.3844 -24.1057 -0)
(63.4189 -28.6982 -0)
(60.1745 -33.6024 -0)
(55.4803 -38.219 -0)
(49.1439 -42.3557 -0)
(41.5328 -44.4256 -0)
(33.5661 -44.4382 -0)
(25.9574 -42.3938 -0)
(19.626 -38.2837 -0)
(14.9392 -33.6952 -0)
(11.7051 -28.8215 -0)
(9.75295 -24.2625 -0)
(8.72802 -20.2646 -0)
(8.31136 -16.8704 -0)
(8.27009 -14.0361 -0)
(8.44707 -11.6883 -0)
(8.74046 -9.74995 -0)
(9.0863 -8.15025 -0)
(9.44562 -6.82835 -0)
(9.7956 -5.7336 -0)
(10.1238 -4.82454 -0)
(10.424 -4.06754 -0)
(10.6941 -3.43538 -0)
(10.9344 -2.90607 -0)
(11.1462 -2.46176 -0)
(11.3317 -2.08795 -0)
(64.0203 -0.333377 -0)
(64.0458 -1.00968 -0)
(64.0961 -1.71498 -0)
(64.1694 -2.46973 -0)
(64.2629 -3.29609 -0)
(64.3715 -4.21865 -0)
(64.4869 -5.26522 -0)
(64.5964 -6.46746 -0)
(64.6801 -7.86144 -0)
(64.7077 -9.48772 -0)
(64.634 -11.3905 -0)
(64.3927 -13.6149 -0)
(63.889 -16.2006 -0)
(62.9923 -19.1698 -0)
(61.5324 -22.5047 -0)
(59.3101 -26.1114 -0)
(56.139 -29.7737 -0)
(51.9247 -33.1391 -0)
(46.6781 -35.8526 -0)
(40.6692 -37.3087 -0)
(34.4031 -37.3223 -0)
(28.396 -35.894 -0)
(23.1529 -33.2091 -0)
(18.944 -29.8742 -0)
(15.7805 -26.2448 -0)
(13.5678 -22.6744 -0)
(12.1199 -19.38 -0)
(11.2379 -16.4565 -0)
(10.752 -13.9229 -0)
(10.5319 -11.7583 -0)
(10.4833 -9.92465 -0)
(10.5404 -8.37847 -0)
(10.6586 -7.07767 -0)
(10.8084 -5.9841 -0)
(10.9707 -5.06452 -0)
(11.1336 -4.29064 -0)
(11.2898 -3.63864 -0)
(11.4354 -3.08861 -0)
(11.5683 -2.62399 -0)
(11.6881 -2.23102 -0)
(63.336 -0.341526 -0)
(63.3426 -1.03364 -0)
(63.3545 -1.75319 -0)
(63.3689 -2.51925 -0)
(63.3809 -3.35212 -0)
(63.3834 -4.27366 -0)
(63.3655 -5.30771 -0)
(63.3112 -6.48024 -0)
(63.198 -7.81913 -0)
(62.9938 -9.35344 -0)
(62.6542 -11.1115 -0)
(62.1188 -13.1172 -0)
(61.3081 -15.3839 -0)
(60.1219 -17.9036 -0)
(58.4428 -20.632 -0)
(56.1499 -23.4689 -0)
(53.1468 -26.2421 -0)
(49.4014 -28.7109 -0)
(44.9744 -30.6071 -0)
(40.0631 -31.6341 -0)
(34.9808 -31.6485 -0)
(30.0706 -30.6506 -0)
(25.6457 -28.7845 -0)
(21.9035 -26.3477 -0)
(18.9049 -23.6091 -0)
(16.6178 -20.8103 -0)
(14.9459 -18.1244 -0)
(13.7684 -15.6526 -0)
(12.9682 -13.4406 -0)
(12.4453 -11.4976 -0)
(12.1203 -9.81185 -0)
(11.9333 -8.36132 -0)
(11.84 -7.11975 -0)
(11.8087 -6.06059 -0)
(11.8172 -5.15882 -0)
(11.8499 -4.39188 -0)
(11.8962 -3.73991 -0)
(11.949 -3.18573 -0)
(12.0038 -2.71458 -0)
(12.0575 -2.31389 -0)
(62.6451 -0.340611 -0)
(62.6341 -1.03016 -0)
(62.6105 -1.74487 -0)
(62.5705 -2.50198 -0)
(62.5085 -3.31947 -0)
(62.4159 -4.21614 -0)
(62.2803 -5.21173 -0)
(62.085 -6.32665 -0)
(61.8069 -7.58142 -0)
(61.4154 -8.99542 -0)
(60.8702 -10.5847 -0)
(60.1203 -12.3586 -0)
(59.1026 -14.3141 -0)
(57.7442 -16.4287 -0)
(55.9671 -18.6507 -0)
(53.7 -20.8903 -0)
(50.897 -23.0147 -0)
(47.5596 -24.8554 -0)
(43.7549 -26.2308 -0)
(39.6279 -26.9722 -0)
(35.3866 -26.9869 -0)
(31.2599 -26.2753 -0)
(27.4559 -24.9308 -0)
(24.1195 -23.1228 -0)
(21.3179 -21.0338 -0)
(19.0525 -18.8332 -0)
(17.2776 -16.6546 -0)
(15.9217 -14.5891 -0)
(14.9071 -12.6893 -0)
(14.1607 -10.9794 -0)
(13.6195 -9.46387 -0)
(13.2325 -8.1352 -0)
(12.9593 -6.97944 -0)
(12.7694 -5.97969 -0)
(12.6395 -5.11828 -0)
(12.5525 -4.37813 -0)
(12.496 -3.74341 -0)
(12.4607 -3.19982 -0)
(12.4402 -2.73471 -0)
(12.4297 -2.33698 -0)
(61.9652 -0.331363 -0)
(61.9384 -1.00154 -0)
(61.8827 -1.69414 -0)
(61.7943 -2.42435 -0)
(61.6668 -3.20763 -0)
(61.4912 -4.05971 -0)
(61.255 -4.99641 -0)
(60.9415 -6.03322 -0)
(60.5293 -7.18449 -0)
(59.9905 -8.46209 -0)
(59.291 -9.87341 -0)
(58.3894 -11.4184 -0)
(57.238 -13.0853 -0)
(55.7853 -14.8464 -0)
(53.9812 -16.6519 -0)
(51.786 -18.4268 -0)
(49.1817 -20.0708 -0)
(46.1852 -21.4653 -0)
(42.8576 -22.4886 -0)
(39.3071 -23.0368 -0)
(35.6777 -23.0515 -0)
(32.1267 -22.5331 -0)
(28.7983 -21.5406 -0)
(25.8006 -20.1788 -0)
(23.1945 -18.5701 -0)
(20.997 -16.834 -0)
(19.19 -15.0718 -0)
(17.7337 -13.3597 -0)
(16.5778 -11.7483 -0)
(15.6708 -10.267 -0)
(14.9646 -8.929 -0)
(14.4177 -7.73615 -0)
(13.9955 -6.68313 -0)
(13.6699 -5.76044 -0)
(13.4188 -4.95648 -0)
(13.2247 -4.25896 -0)
(13.0745 -3.65577 -0)
(12.9577 -3.13544 -0)
(12.8666 -2.68745 -0)
(12.7952 -2.30231 -0)
(61.3122 -0.314664 -0)
(61.2714 -0.950486 -0)
(61.1877 -1.6058 -0)
(61.057 -2.29364 -0)
(60.8732 -3.02698 -0)
(60.6271 -3.81865 -0)
(60.3068 -4.68099 -0)
(59.8969 -5.62534 -0)
(59.378 -6.66121 -0)
(58.7264 -7.79504 -0)
(57.914 -9.02847 -0)
(56.9083 -10.3561 -0)
(55.6746 -11.7625 -0)
(54.1777 -13.2195 -0)
(52.3866 -14.6836 -0)
(50.281 -16.0943 -0)
(47.8585 -17.3766 -0)
(45.1418 -18.4464 -0)
(42.1834 -19.2216 -0)
(39.065 -19.635 -0)
(35.8903 -19.6493 -0)
(32.7709 -19.2648 -0)
(29.8101 -18.5197 -0)
(27.0899 -17.4817 -0)
(24.6626 -16.2338 -0)
(22.5508 -14.8609 -0)
(20.7519 -13.439 -0)
(19.2453 -12.0295 -0)
(17.9998 -10.6771 -0)
(16.9799 -9.41129 -0)
(16.1504 -8.24898 -0)
(15.4783 -7.19728 -0)
(14.935 -6.2565 -0)
(14.496 -5.42246 -0)
(14.1409 -4.68823 -0)
(13.8532 -4.04547 -0)
(13.6195 -3.48526 -0)
(13.429 -2.99871 -0)
(13.2733 -2.57734 -0)
(13.1455 -2.21323 -0)
(60.7001 -0.291471 -0)
(60.6472 -0.879939 -0)
(60.5395 -1.48495 -0)
(60.3731 -2.11742 -0)
(60.1418 -2.78801 -0)
(59.8372 -3.50693 -0)
(59.4483 -4.28356 -0)
(58.9613 -5.12594 -0)
(58.3595 -6.03997 -0)
(57.6233 -7.0284 -0)
(56.73 -8.08939 -0)
(55.6554 -9.21493 -0)
(54.3745 -10.389 -0)
(52.8642 -11.5858 -0)
(51.1065 -12.7686 -0)
(49.093 -13.8903 -0)
(46.8296 -14.8947 -0)
(44.3402 -15.7222 -0)
(41.669 -16.3162 -0)
(38.8793 -16.6323 -0)
(36.0478 -16.6458 -0)
(33.2563 -16.3573 -0)
(30.5814 -15.7917 -0)
(28.0864 -14.9945 -0)
(25.8153 -14.0226 -0)
(23.7918 -12.9369 -0)
(22.0215 -11.7939 -0)
(20.4957 -10.6421 -0)
(19.196 -9.5192 -0)
(18.0988 -8.45213 -0)
(17.1786 -7.45836 -0)
(16.4102 -6.54748 -0)
(15.7703 -5.72313 -0)
(15.2382 -4.98466 -0)
(14.7957 -4.32853 -0)
(14.4277 -3.74943 -0)
(14.1212 -3.24109 -0)
(13.8656 -2.79682 -0)
(13.6521 -2.40996 -0)
(13.4733 -2.07408 -0)
(60.1408 -0.262753 -0)
(60.0779 -0.792846 -0)
(59.9502 -1.33665 -0)
(59.754 -1.90308 -0)
(59.4837 -2.50071 -0)
(59.1315 -3.13749 -0)
(58.6878 -3.82037 -0)
(58.1405 -4.55487 -0)
(57.4756 -5.34435 -0)
(56.677 -6.18919 -0)
(55.7274 -7.08576 -0)
(54.6088 -8.02529 -0)
(53.3038 -8.99273 -0)
(51.798 -9.96586 -0)
(50.0821 -10.9149 -0)
(48.155 -11.8034 -0)
(46.0267 -12.5898 -0)
(43.7203 -13.2313 -0)
(41.2733 -13.6888 -0)
(38.7354 -13.932 -0)
(36.1653 -13.9445 -0)
(33.625 -13.7267 -0)
(31.173 -13.2955 -0)
(28.859 -12.6817 -0)
(26.7202 -11.9254 -0)
(24.7796 -11.07 -0)
(23.0467 -10.1576 -0)
(21.52 -9.22591 -0)
(20.1897 -8.30548 -0)
(19.0408 -7.41969 -0)
(18.055 -6.58484 -0)
(17.2136 -5.81115 -0)
(16.4979 -5.10388 -0)
(15.8906 -4.46451 -0)
(15.3762 -3.89179 -0)
(14.9407 -3.38265 -0)
(14.5721 -2.93284 -0)
(14.2602 -2.53752 -0)
(13.996 -2.19158 -0)
(13.7723 -1.88995 -0)
(59.6445 -0.229446 -0)
(59.5733 -0.692047 -0)
(59.4293 -1.16571 -0)
(59.209 -1.65755 -0)
(58.9074 -2.17427 -0)
(58.5175 -2.72193 -0)
(58.0309 -3.30558 -0)
(57.4373 -3.92883 -0)
(56.7252 -4.59337 -0)
(55.8819 -5.29824 -0)
(54.8939 -6.03916 -0)