/*--------------------------------*- C++ -*----------------------------------*\
  =========                 |
  \\      /  F ield         | OpenFOAM: The Open Source CFD Toolbox
   \\    /   O peration     | Website:  https://openfoam.org
    \\  /    A nd           | Version:  7
     \\/     M anipulation  |
\*---------------------------------------------------------------------------*/
FoamFile
{
    version     2.0;
    format      ascii;
    class       volScalarField;
    location    "1.1e-12";
    object      voltA;
}
// * * * * * * * * * * * * * * * * * * * * * * * * * * * * * * * * * * * * * //

dimensions      [1 2 -3 0 0 -1 0];

internalField   nonuniform List<scalar> 
15000
(
32.2137
31.9462
31.683
31.4241
31.1694
30.9188
30.6723
30.4298
30.1913
29.9566
29.7259
29.4989
29.2758
29.0563
28.8404
28.6282
28.4196
28.2145
28.0128
27.8146
27.6198
27.4283
27.2401
27.0552
26.8735
26.695
26.5197
26.3475
26.1784
26.0123
25.8492
25.6891
25.532
25.3778
25.2265
25.078
24.9324
24.7895
24.6495
24.5122
24.3776
24.2457
24.1165
23.9899
23.8659
23.7446
23.6258
23.5095
23.3959
23.2847
23.176
23.0698
22.966
22.8647
22.7657
22.6692
22.5751
22.4833
22.3939
22.3068
22.222
22.1396
22.0594
21.9815
21.9058
21.8324
21.7612
21.6923
21.6255
21.561
21.4986
21.4385
21.3805
21.3246
21.2709
21.2193
21.1699
21.1226
21.0774
21.0343
20.9933
20.9544
20.9176
20.8828
20.8501
20.8195
20.791
20.7645
20.7401
20.7177
20.6974
20.6791
20.6629
20.6487
20.6366
20.6264
20.6184
20.6123
20.6083
20.6063
33.8136
33.5343
33.2597
32.9894
32.7235
32.4619
32.2046
31.9514
31.7023
31.4573
31.2163
30.9792
30.7461
30.5168
30.2913
30.0696
29.8516
29.6372
29.4265
29.2193
29.0157
28.8155
28.6188
28.4255
28.2355
28.0489
27.8656
27.6855
27.5086
27.3349
27.1644
26.9969
26.8325
26.6712
26.5129
26.3576
26.2052
26.0557
25.9092
25.7655
25.6246
25.4866
25.3513
25.2189
25.0891
24.9621
24.8377
24.716
24.597
24.4806
24.3668
24.2556
24.1469
24.0408
23.9373
23.8362
23.7376
23.6415
23.5478
23.4566
23.3678
23.2814
23.1974
23.1158
23.0366
22.9597
22.8851
22.8129
22.743
22.6754
22.61
22.547
22.4862
22.4277
22.3714
22.3174
22.2656
22.216
22.1686
22.1235
22.0805
22.0398
22.0012
21.9648
21.9305
21.8985
21.8686
21.8408
21.8152
21.7918
21.7705
21.7513
21.7343
21.7194
21.7067
21.6961
21.6876
21.6812
21.677
21.675
35.4093
35.1183
34.8322
34.5507
34.2737
34.0011
33.733
33.4691
33.2096
32.9542
32.703
32.4559
32.2129
31.9739
31.7388
31.5076
31.2802
31.0567
30.8369
30.6208
30.4084
30.1996
29.9944
29.7927
29.5945
29.3998
29.2085
29.0206
28.836
28.6547
28.4767
28.3019
28.1303
27.9619
27.7967
27.6345
27.4754
27.3193
27.1663
27.0163
26.8692
26.725
26.5838
26.4454
26.3099
26.1772
26.0473
25.9202
25.7959
25.6743
25.5554
25.4392
25.3257
25.2148
25.1066
25.0009
24.8979
24.7975
24.6996
24.6043
24.5115
24.4212
24.3334
24.2481
24.1653
24.0849
24.007
23.9315
23.8584
23.7877
23.7194
23.6535
23.59
23.5288
23.47
23.4135
23.3593
23.3075
23.258
23.2108
23.1659
23.1232
23.0829
23.0448
23.009
22.9755
22.9442
22.9152
22.8885
22.8639
22.8417
22.8216
22.8038
22.7883
22.775
22.7639
22.755
22.7484
22.744
22.7418
37.0002
36.6978
36.4004
36.1076
35.8196
35.5362
35.2573
34.9828
34.7128
34.4472
34.1859
33.9288
33.6759
33.4271
33.1825
32.9419
32.7053
32.4726
32.2438
32.0189
31.7977
31.5803
31.3667
31.1567
30.9503
30.7475
30.5482
30.3525
30.1602
29.9714
29.786
29.6039
29.4251
29.2497
29.0775
28.9085
28.7427
28.5801
28.4206
28.2643
28.111
27.9607
27.8135
27.6693
27.528
27.3897
27.2543
27.1218
26.9921
26.8654
26.7414
26.6203
26.5019
26.3863
26.2734
26.1633
26.0559
25.9511
25.8491
25.7496
25.6529
25.5587
25.4671
25.3782
25.2918
25.2079
25.1266
25.0479
24.9716
24.8979
24.8267
24.7579
24.6916
24.6278
24.5664
24.5075
24.451
24.3969
24.3452
24.296
24.2491
24.2046
24.1625
24.1228
24.0855
24.0505
24.0178
23.9876
23.9596
23.9341
23.9108
23.8899
23.8713
23.8551
23.8412
23.8296
23.8204
23.8134
23.8088
23.8066
38.5863
38.2726
37.9639
37.66
37.361
37.0667
36.7771
36.4922
36.2118
35.9359
35.6645
35.3975
35.1348
34.8764
34.6223
34.3723
34.1264
33.8847
33.6469
33.4132
33.1833
32.9574
32.7353
32.517
32.3025
32.0917
31.8846
31.6811
31.4812
31.2848
31.092
30.9026
30.7168
30.5343
30.3552
30.1794
30.007
29.8379
29.672
29.5093
29.3498
29.1935
29.0403
28.8903
28.7433
28.5993
28.4585
28.3206
28.1857
28.0537
27.9247
27.7986
27.6754
27.5551
27.4376
27.323
27.2112
27.1022
26.9959
26.8924
26.7917
26.6936
26.5983
26.5057
26.4157
26.3284
26.2438
26.1618
26.0824
26.0056
25.9315
25.8599
25.7908
25.7244
25.6605
25.5991
25.5403
25.4839
25.4301
25.3788
25.33
25.2837
25.2399
25.1985
25.1596
25.1231
25.0892
25.0576
25.0285
25.0019
24.9777
24.9559
24.9366
24.9197
24.9052
24.8931
24.8835
24.8762
24.8714
24.8691
40.1676
39.8425
39.5225
39.2076
38.8977
38.5926
38.2924
37.997
37.7063
37.4203
37.1388
36.8619
36.5895
36.3215
36.0579
35.7986
35.5436
35.2928
35.0461
34.8036
34.5652
34.3307
34.1003
33.8737
33.6511
33.4323
33.2173
33.0061
32.7986
32.5947
32.3946
32.198
32.005
31.8156
31.6296
31.4471
31.2681
31.0924
30.9201
30.7512
30.5855
30.4232
30.2641
30.1082
29.9556
29.806
29.6597
29.5164
29.3763
29.2392
29.1052
28.9742
28.8462
28.7212
28.5991
28.48
28.3638
28.2505
28.1401
28.0325
27.9278
27.8259
27.7269
27.6306
27.5371
27.4464
27.3584
27.2732
27.1907
27.1109
27.0338
26.9593
26.8876
26.8185
26.752
26.6882
26.6271
26.5685
26.5126
26.4593
26.4085
26.3604
26.3148
26.2718
26.2313
26.1934
26.1581
26.1253
26.0951
26.0674
26.0422
26.0196
25.9995
25.9819
25.9668
25.9543
25.9442
25.9367
25.9317
25.9293
41.7439
41.4074
41.0763
40.7504
40.4296
40.1138
39.8031
39.4972
39.1963
38.9001
38.6087
38.322
38.0399
37.7624
37.4894
37.2208
36.9566
36.6968
36.4413
36.1901
35.943
35.7001
35.4614
35.2266
34.9959
34.7692
34.5464
34.3275
34.1124
33.9011
33.6936
33.4899
33.2898
33.0934
32.9006
32.7114
32.5258
32.3437
32.165
31.9898
31.8181
31.6497
31.4847
31.3231
31.1647
31.0097
30.8579
30.7093
30.5639
30.4218
30.2827
30.1468
30.014
29.8843
29.7577
29.6341
29.5136
29.396
29.2815
29.1699
29.0612
28.9555
28.8527
28.7528
28.6558
28.5617
28.4704
28.3819
28.2963
28.2135
28.1334
28.0562
27.9817
27.91
27.8411
27.7749
27.7114
27.6506
27.5925
27.5372
27.4845
27.4345
27.3872
27.3426
27.3006
27.2613
27.2246
27.1906
27.1592
27.1304
27.1043
27.0808
27.0599
27.0416
27.026
27.013
27.0026
26.9948
26.9896
26.987
43.3149
42.9672
42.6249
42.2881
41.9565
41.6301
41.3089
40.9927
40.6815
40.3753
40.074
39.7775
39.4858
39.1988
38.9164
38.6387
38.3654
38.0967
37.8324
37.5724
37.3169
37.0655
36.8185
36.5756
36.3369
36.1022
35.8717
35.6451
35.4225
35.2038
34.9891
34.7782
34.5711
34.3677
34.1682
33.9723
33.7801
33.5915
33.4066
33.2252
33.0473
32.873
32.7021
32.5347
32.3707
32.2102
32.0529
31.8991
31.7485
31.6012
31.4572
31.3164
31.1789
31.0445
30.9134
30.7853
30.6604
30.5387
30.42
30.3044
30.1918
30.0823
29.9758
29.8722
29.7717
29.6742
29.5796
29.4879
29.3992
29.3134
29.2304
29.1504
29.0732
28.9989
28.9275
28.8588
28.793
28.73
28.6699
28.6125
28.5579
28.5061
28.4571
28.4108
28.3673
28.3265
28.2885
28.2532
28.2207
28.1909
28.1638
28.1395
28.1178
28.0989
28.0827
28.0692
28.0584
28.0503
28.0449
28.0423
44.8804
44.5215
44.1683
43.8205
43.4782
43.1413
42.8096
42.4832
42.1619
41.8457
41.5346
41.2284
40.9271
40.6306
40.339
40.0521
39.7698
39.4922
39.2191
38.9506
38.6865
38.4268
38.1715
37.9205
37.6738
37.4313
37.193
36.9588
36.7288
36.5027
36.2807
36.0627
35.8486
35.6384
35.4321
35.2296
35.0308
34.8359
34.6446
34.457
34.2731
34.0928
33.9162
33.743
33.5734
33.4073
33.2447
33.0856
32.9298
32.7775
32.6285
32.4829
32.3406
32.2016
32.0659
31.9335
31.8043
31.6783
31.5555
31.4359
31.3194
31.2061
31.0959
30.9888
30.8848
30.7838
30.6859
30.5911
30.4992
30.4104
30.3246
30.2418
30.1619
30.085
30.0111
29.94
29.8719
29.8068
29.7445
29.6851
29.6286
29.575
29.5242
29.4763
29.4313
29.3891
29.3498
29.3133
29.2796
29.2487
29.2207
29.1955
29.1731
29.1535
29.1367
29.1227
29.1116
29.1032
29.0976
29.0948
46.4403
46.0704
45.7062
45.3477
44.9947
44.6473
44.3052
43.9686
43.6373
43.3111
42.9902
42.6744
42.3636
42.0578
41.7569
41.4608
41.1696
40.8831
40.6014
40.3242
40.0517
39.7837
39.5202
39.2612
39.0065
38.7562
38.5103
38.2685
38.031
37.7977
37.5685
37.3434
37.1223
36.9053
36.6922
36.4831
36.2779
36.0765
35.879
35.6853
35.4954
35.3092
35.1267
34.9478
34.7727
34.6011
34.4331
34.2687
34.1078
33.9504
33.7966
33.6461
33.4991
33.3555
33.2153
33.0785
32.9449
32.8148
32.6879
32.5643
32.4439
32.3268
32.2129
32.1022
31.9948
31.8904
31.7893
31.6913
31.5964
31.5046
31.4159
31.3303
31.2477
31.1682
31.0918
31.0184
30.948
30.8806
30.8163
30.7549
30.6965
30.6411
30.5886
30.5391
30.4925
30.4489
30.4083
30.3705
30.3357
30.3038
30.2748
30.2488
30.2256
30.2053
30.188
30.1735
30.162
30.1533
30.1476
30.1447
47.9945
47.6135
47.2384
46.8692
46.5057
46.1478
45.7955
45.4487
45.1074
44.7714
44.4408
44.1154
43.7951
43.48
43.1699
42.8648
42.5647
42.2695
41.979
41.6934
41.4125
41.1362
40.8646
40.5975
40.335
40.0769
39.8233
39.574
39.3291
39.0885
38.8522
38.62
38.392
38.1682
37.9485
37.7328
37.5211
37.3134
37.1097
36.9099
36.7139
36.5218
36.3335
36.1491
35.9683
35.7913
35.618
35.4484
35.2823
35.12
34.9612
34.8059
34.6542
34.506
34.3613
34.2201
34.0823
33.948
33.817
33.6894
33.5652
33.4444
33.3268
33.2126
33.1016
32.994
32.8895
32.7884
32.6904
32.5956
32.5041
32.4157
32.3305
32.2484
32.1695
32.0938
32.0211
31.9515
31.8851
31.8217
31.7614
31.7042
31.65
31.5989
31.5509
31.5058
31.4638
31.4249
31.3889
31.356
31.3261
31.2992
31.2752
31.2543
31.2364
31.2215
31.2095
31.2006
31.1946
31.1917
49.5427
49.1508
48.7649
48.3851
48.011
47.6428
47.2803
46.9235
46.5722
46.2264
45.8861
45.5512
45.2216
44.8972
44.578
44.2639
43.9549
43.651
43.3519
43.0578
42.7686
42.4841
42.2044
41.9294
41.659
41.3932
41.132
40.8752
40.623
40.3751
40.1317
39.8925
39.6577
39.4271
39.2007
38.9784
38.7604
38.5464
38.3364
38.1305
37.9286
37.7307
37.5367
37.3465
37.1603
36.9778
36.7992
36.6244
36.4533
36.2859
36.1222
35.9622
35.8058
35.6531
35.5039
35.3584
35.2163
35.0778
34.9428
34.8113
34.6832
34.5586
34.4374
34.3196
34.2053
34.0942
33.9866
33.8822
33.7812
33.6835
33.5891
33.498
33.4101
33.3255
33.2442
33.166
33.0911
33.0194
32.9508
32.8855
32.8233
32.7643
32.7084
32.6557
32.6062
32.5597
32.5164
32.4762
32.4392
32.4052
32.3743
32.3466
32.3219
32.3003
32.2819
32.2665
32.2541
32.2449
32.2388
32.2357
51.0848
50.682
50.2855
49.8951
49.5106
49.1321
48.7595
48.3926
48.0315
47.676
47.3261
46.9817
46.6428
46.3092
45.9809
45.658
45.3402
45.0275
44.72
44.4174
44.1199
43.8273
43.5395
43.2566
42.9784
42.7049
42.4362
42.172
41.9124
41.6574
41.4068
41.1607
40.919
40.6817
40.4487
40.22
39.9955
39.7753
39.5592
39.3472
39.1394
38.9356
38.7359
38.5402
38.3484
38.1606
37.9767
37.7967
37.6205
37.4482
37.2796
37.1149
36.9539
36.7966
36.643
36.4931
36.3468
36.2042
36.0651
35.9297
35.7978
35.6695
35.5446
35.4233
35.3055
35.1912
35.0803
34.9728
34.8688
34.7682
34.6709
34.5771
34.4865
34.3994
34.3156
34.2351
34.1579
34.084
34.0134
33.9461
33.882
33.8213
33.7637
33.7094
33.6584
33.6105
33.5659
33.5245
33.4863
33.4513
33.4195
33.3909
33.3655
33.3433
33.3242
33.3084
33.2957
33.2862
33.2798
33.2767
52.6206
52.2071
51.8
51.399
51.0043
50.6156
50.2329
49.8561
49.4852
49.12
48.7606
48.4068
48.0586
47.7159
47.3786
47.0468
46.7203
46.399
46.083
45.7721
45.4663
45.1656
44.8698
44.579
44.2931
44.012
43.7357
43.4642
43.1973
42.9352
42.6776
42.4246
42.1761
41.932
41.6925
41.4573
41.2265
41
40.7778
40.5598
40.3461
40.1365
39.9311
39.7298
39.5326
39.3394
39.1503
38.9651
38.7839
38.6066
38.4333
38.2638
38.0982
37.9364
37.7783
37.6241
37.4736
37.3269
37.1839
37.0445
36.9088
36.7768
36.6484
36.5235
36.4023
36.2847
36.1706
36.06
35.9529
35.8494
35.7493
35.6527
35.5596
35.4699
35.3837
35.3008
35.2214
35.1454
35.0727
35.0034
34.9375
34.875
34.8157
34.7599
34.7073
34.6581
34.6122
34.5696
34.5303
34.4942
34.4615
34.4321
34.4059
34.3831
34.3635
34.3471
34.3341
34.3243
34.3177
34.3145
54.15
53.7259
53.3082
52.8969
52.4919
52.093
51.7003
51.3137
50.9331
50.5583
50.1894
49.8263
49.4689
49.1171
48.771
48.4303
48.0951
47.7653
47.4408
47.1216
46.8076
46.4989
46.1952
45.8965
45.6029
45.3143
45.0305
44.7517
44.4776
44.2083
43.9437
43.6839
43.4286
43.1779
42.9318
42.6902
42.4531
42.2204
41.9921
41.7682
41.5486
41.3333
41.1222
40.9154
40.7127
40.5142
40.3199
40.1296
39.9434
39.7612
39.583
39.4089
39.2386
39.0723
38.9099
38.7514
38.5968
38.4459
38.2989
38.1557
38.0162
37.8805
37.7485
37.6202
37.4956
37.3746
37.2573
37.1436
37.0336
36.9271
36.8243
36.725
36.6292
36.537
36.4483
36.3632
36.2815
36.2033
36.1286
36.0574
35.9896
35.9253
35.8644
35.807
35.753
35.7023
35.6551
35.6113
35.5709
35.5339
35.5002
35.47
35.4431
35.4195
35.3994
35.3826
35.3692
35.3591
35.3524
35.349
55.6728
55.2383
54.8101
54.3885
53.9732
53.5644
53.1617
52.7653
52.375
51.9908
51.6125
51.2401
50.8736
50.5128
50.1578
49.8083
49.4645
49.1262
48.7934
48.4659
48.1438
47.827
47.5155
47.2091
46.9078
46.6117
46.3205
46.0343
45.7531
45.4768
45.2052
44.9385
44.6766
44.4193
44.1667
43.9187
43.6753
43.4365
43.2021
42.9723
42.7468
42.5258
42.3091
42.0968
41.8887
41.6849
41.4854
41.29
41.0988
40.9118
40.7288
40.55
40.3752
40.2044
40.0376
39.8749
39.716
39.5611
39.4102
39.2631
39.1198
38.9804
38.8449
38.7131
38.5851
38.4609
38.3404
38.2237
38.1106
38.0013
37.8956
37.7937
37.6953
37.6006
37.5095
37.422
37.3381
37.2578
37.1811
37.1079
37.0383
36.9723
36.9097
36.8507
36.7952
36.7432
36.6947
36.6497
36.6082
36.5701
36.5356
36.5045
36.4768
36.4527
36.432
36.4147
36.4009
36.3906
36.3837
36.3802
57.1891
56.744
56.3055
55.8736
55.4483
55.0294
54.6169
54.2108
53.8109
53.4172
53.0296
52.6481
52.2725
51.9028
51.5389
51.1808
50.8284
50.4817
50.1405
49.8049
49.4747
49.15
48.8306
48.5165
48.2076
47.904
47.6055
47.3121
47.0237
46.7403
46.4619
46.1884
45.9198
45.656
45.3969
45.1426
44.893
44.648
44.4077
44.1719
43.9407
43.7139
43.4917
43.2739
43.0604
42.8514
42.6467
42.4462
42.2501
42.0582
41.8705
41.687
41.5077
41.3325
41.1614
40.9944
40.8314
40.6725
40.5175
40.3666
40.2196
40.0766
39.9375
39.8022
39.6709
39.5434
39.4198
39.3
39.184
39.0718
38.9634
38.8587
38.7577
38.6605
38.5671
38.4773
38.3912
38.3088
38.23
38.1549
38.0835
38.0156
37.9515
37.8909
37.8339
37.7805
37.7308
37.6846
37.6419
37.6029
37.5674
37.5355
37.5071
37.4823
37.4611
37.4434
37.4292
37.4186
37.4115
37.408
58.6985
58.243
57.7942
57.3522
56.9168
56.488
56.0658
55.65
55.2407
54.8376
54.4407
54.05
53.6655
53.2869
52.9143
52.5476
52.1867
51.8316
51.4822
51.1384
50.8002
50.4676
50.1404
49.8186
49.5023
49.1912
48.8854
48.5848
48.2893
47.999
47.7137
47.4335
47.1582
46.8879
46.6224
46.3618
46.106
45.855
45.6086
45.367
45.13
44.8976
44.6698
44.4466
44.2278
44.0135
43.8037
43.5982
43.3972
43.2004
43.008
42.8199
42.6361
42.4564
42.281
42.1098
41.9427
41.7798
41.6209
41.4662
41.3155
41.1688
41.0262
40.8875
40.7528
40.6221
40.4954
40.3725
40.2536
40.1385
40.0273
39.92
39.8165
39.7168
39.6209
39.5288
39.4405
39.356
39.2753
39.1982
39.125
39.0554
38.9896
38.9275
38.869
38.8143
38.7632
38.7159
38.6721
38.6321
38.5957
38.563
38.5339
38.5085
38.4867
38.4685
38.454
38.4431
38.4358
38.4322
60.2011
59.7352
59.2762
58.824
58.3787
57.9401
57.5082
57.0829
56.6641
56.2517
55.8457
55.4459
55.0524
54.6651
54.2838
53.9085
53.5392
53.1757
52.8181
52.4663
52.1202
51.7797
51.4448
51.1154
50.7916
50.4731
50.16
49.8523
49.5498
49.2526
48.9605
48.6736
48.3917
48.1149
47.8431
47.5762
47.3142
47.0572
46.8049
46.5574
46.3147
46.0767
45.8434
45.6147
45.3907
45.1712
44.9562
44.7458
44.5399
44.3383
44.1413
43.9486
43.7602
43.5762
43.3965
43.2211
43.0499
42.883
42.7202
42.5617
42.4073
42.257
42.1109
41.9688
41.8308
41.6969
41.567
41.4411
41.3192
41.2013
41.0874
40.9774
40.8713
40.7692
40.671
40.5766
40.4861
40.3995
40.3168
40.2378
40.1627
40.0915
40.024
39.9603
39.9005
39.8444
39.792
39.7435
39.6987
39.6577
39.6204
39.5868
39.557
39.5309
39.5086
39.49
39.4751
39.4639
39.4565
39.4528
61.6965
61.2203
60.7512
60.289
59.8339
59.3856
58.944
58.5092
58.0811
57.6594
57.2443
56.8356
56.4332
56.0371
55.6472
55.2635
54.8858
54.5141
54.1484
53.7885
53.4345
53.0862
52.7437
52.4068
52.0754
51.7497
51.4294
51.1146
50.8051
50.501
50.2021
49.9085
49.6202
49.3369
49.0588
48.7857
48.5176
48.2545
47.9964
47.7431
47.4947
47.2511
47.0124
46.7783
46.549
46.3243
46.1043
45.8889
45.6781
45.4718
45.2701
45.0728
44.88
44.6917
44.5077
44.3281
44.1529
43.982
43.8154
43.653
43.4949
43.3411
43.1915
43.046
42.9047
42.7676
42.6346
42.5057
42.3809
42.2602
42.1435
42.0309
41.9223
41.8177
41.7171
41.6205
41.5279
41.4392
41.3544
41.2736
41.1967
41.1237
41.0546
40.9894
40.9281
40.8707
40.8171
40.7674
40.7215
40.6795
40.6413
40.6069
40.5764
40.5497
40.5268
40.5077
40.4925
40.4811
40.4734
40.4696
63.1848
62.6984
62.2192
61.7471
61.2822
60.8242
60.3731
59.9289
59.4915
59.0607
58.6366
58.2189
57.8078
57.403
57.0046
56.6124
56.2264
55.8465
55.4727
55.1049
54.743
54.387
54.0369
53.6925
53.3538
53.0207
52.6933
52.3714
52.055
51.7441
51.4385
51.1383
50.8434
50.5538
50.2694
49.9901
49.716
49.4469
49.1829
48.9239
48.6699
48.4208
48.1765
47.9372
47.7026
47.4728
47.2478
47.0274
46.8118
46.6008
46.3944
46.1926
45.9954
45.8027
45.6145
45.4308
45.2515
45.0766
44.9062
44.7401
44.5784
44.421
44.2679
44.1191
43.9745
43.8342
43.6981
43.5662
43.4385
43.315
43.1956
43.0804
42.9693
42.8622
42.7593
42.6604
42.5656
42.4749
42.3881
42.3054
42.2267
42.152
42.0813
42.0146
41.9519
41.8931
41.8383
41.7874
41.7404
41.6974
41.6583
41.6232
41.5919
41.5646
41.5412
41.5217
41.5061
41.4944
41.4866
41.4827
64.6656
64.1691
63.68
63.1981
62.7234
62.2559
61.7954
61.3419
60.8952
60.4554
60.0222
59.5958
59.1759
58.7625
58.3556
57.9551
57.5608
57.1728
56.791
56.4153
56.0457
55.682
55.3243
54.9725
54.6264
54.2862
53.9517
53.6228
53.2995
52.9818
52.6696
52.3628
52.0615
51.7655
51.4748
51.1894
50.9093
50.6343
50.3645
50.0998
49.8401
49.5855
49.3359
49.0912
48.8514
48.6165
48.3865
48.1613
47.9408
47.7251
47.5142
47.3079
47.1062
46.9092
46.7168
46.529
46.3457
46.1669
45.9926
45.8228
45.6575
45.4965
45.34
45.1878
45.04
44.8966
44.7574
44.6226
44.492
44.3657
44.2436
44.1257
44.0121
43.9027
43.7974
43.6963
43.5993
43.5065
43.4178
43.3332
43.2528
43.1764
43.1041
43.0358
42.9717
42.9115
42.8555
42.8034
42.7554
42.7114
42.6715
42.6355
42.6035
42.5756
42.5516
42.5317
42.5157
42.5038
42.4958
42.4918
66.139
65.6325
65.1335
64.6419
64.1576
63.6805
63.2107
62.7479
62.2921
61.8433
61.4013
60.966
60.5375
60.1156
59.7003
59.2914
58.889
58.493
58.1032
57.7197
57.3423
56.971
56.6058
56.2466
55.8933
55.5459
55.2043
54.8685
54.5384
54.214
53.8951
53.5819
53.2741
52.9718
52.675
52.3835
52.0974
51.8165
51.5409
51.2705
51.0053
50.7452
50.4902
50.2403
49.9954
49.7554
49.5204
49.2903
49.0651
48.8448
48.6292
48.4184
48.2124
48.0111
47.8146
47.6226
47.4354
47.2527
47.0746
46.9011
46.7321
46.5677
46.4077
46.2522
46.1012
45.9546
45.8124
45.6746
45.5411
45.4121
45.2873
45.1669
45.0507
44.9389
44.8313
44.728
44.6289
44.534
44.4434
44.3569
44.2747
44.1966
44.1227
44.053
43.9874
43.926
43.8686
43.8154
43.7664
43.7214
43.6806
43.6438
43.6111
43.5826
43.5581
43.5377
43.5214
43.5092
43.501
43.4969
67.6048
67.0883
66.5795
66.0783
65.5845
65.098
64.6189
64.1469
63.6821
63.2243
62.7735
62.3296
61.8925
61.4621
61.0384
60.6214
60.2109
59.8068
59.4092
59.0179
58.6328
58.254
57.8814
57.5148
57.1543
56.7998
56.4512
56.1085
55.7716
55.4405
55.1151
54.7954
54.4813
54.1728
53.8698
53.5722
53.2802
52.9935
52.7122
52.4361
52.1654
51.8999
51.6395
51.3844
51.1343
50.8893
50.6494
50.4145
50.1845
49.9595
49.7394
49.5242
49.3139
49.1084
48.9076
48.7116
48.5204
48.3339
48.152
47.9748
47.8023
47.6343
47.471
47.3122
47.1579
47.0082
46.863
46.7222
46.5859
46.4541
46.3267
46.2037
46.0851
45.9708
45.8609
45.7554
45.6542
45.5573
45.4647
45.3764
45.2924
45.2127
45.1372
45.066
44.999
44.9362
44.8777
44.8233
44.7732
44.7273
44.6856
44.648
44.6147
44.5855
44.5605
44.5396
44.523
44.5105
44.5021
44.498
69.0628
68.5365
68.018
67.5072
67.0039
66.5082
66.0198
65.5388
65.065
64.5983
64.1388
63.6863
63.2407
62.8019
62.37
61.9448
61.5262
61.1142
60.7088
60.3097
59.9171
59.5308
59.1508
58.777
58.4093
58.0478
57.6922
57.3427
56.9991
56.6613
56.3294
56.0033
55.6829
55.3681
55.059
54.7555
54.4575
54.1651
53.878
53.5964
53.3202
53.0493
52.7837
52.5233
52.2681
52.0182
51.7734
51.5336
51.299
51.0694
50.8448
50.6252
50.4105
50.2008
49.9959
49.7959
49.6007
49.4103
49.2247
49.0439
48.8678
48.6964
48.5296
48.3676
48.2101
48.0573
47.9091
47.7654
47.6263
47.4917
47.3617
47.2361
47.115
46.9984
46.8862
46.7785
46.6752
46.5763
46.4818
46.3916
46.3059
46.2245
46.1474
46.0747
46.0063
45.9422
45.8825
45.827
45.7758
45.729
45.6863
45.648
45.614
45.5842
45.5586
45.5374
45.5204
45.5076
45.4991
45.4948
70.513
69.977
69.4489
68.9285
68.4159
67.9109
67.4134
66.9234
66.4407
65.9653
65.4971
65.036
64.582
64.135
63.6948
63.2615
62.835
62.4151
62.0019
61.5952
61.1951
60.8014
60.414
60.033
59.6582
59.2897
58.9273
58.5709
58.2206
57.8763
57.5379
57.2054
56.8788
56.5579
56.2427
55.9332
55.6294
55.3312
55.0385
54.7514
54.4697
54.1934
53.9225
53.657
53.3968
53.1419
52.8922
52.6477
52.4084
52.1742
51.9452
51.7212
51.5022
51.2883
51.0793
50.8753
50.6762
50.482
50.2927
50.1082
49.9286
49.7537
49.5836
49.4183
49.2577
49.1018
48.9506
48.804
48.6621
48.5248
48.3921
48.264
48.1405
48.0215
47.9071
47.7972
47.6918
47.5908
47.4944
47.4025
47.315
47.2319
47.1533
47.0791
47.0093
46.9439
46.883
46.8264
46.7742
46.7263
46.6829
46.6438
46.609
46.5786
46.5526
46.5309
46.5135
46.5005
46.4918
46.4875
71.9552
71.4095
70.8719
70.3422
69.8203
69.3061
68.7996
68.3006
67.8091
67.325
66.8483
66.3787
65.9163
65.4611
65.0128
64.5715
64.137
63.7094
63.2884
62.8742
62.4666
62.0655
61.6709
61.2827
60.9009
60.5254
60.1562
59.7931
59.4362
59.0854
58.7406
58.4017
58.0689
57.7419
57.4207
57.1053
56.7957
56.4917
56.1935
55.9008
55.6137
55.3321
55.056
54.7854
54.5202
54.2603
54.0058
53.7566
53.5127
53.2739
53.0404
52.8121
52.5889
52.3708
52.1578
51.9498
51.7468
51.5488
51.3558
51.1677
50.9846
50.8063
50.6329
50.4643
50.3005
50.1416
49.9874
49.838
49.6932
49.5533
49.418
49.2873
49.1614
49.0401
48.9234
48.8113
48.7038
48.6009
48.5026
48.4088
48.3196
48.2349
48.1547
48.0791
48.0079
47.9412
47.8791
47.8213
47.7681
47.7193
47.675
47.6351
47.5997
47.5687
47.5421
47.52
47.5023
47.489
47.4802
47.4757
73.3892
72.834
72.287
71.748
71.2169
70.6937
70.1782
69.6704
69.1702
68.6775
68.1922
67.7143
67.2436
66.7801
66.3238
65.8745
65.4322
64.9969
64.5683
64.1466
63.7315
63.3232
62.9214
62.5261
62.1373
61.7549
61.3789
61.0092
60.6457
60.2884
59.9372
59.5921
59.2531
58.92
58.5929
58.2716
57.9562
57.6466
57.3428
57.0447
56.7522
56.4653
56.1841
55.9084
55.6382
55.3734
55.1141
54.8602
54.6117
54.3685
54.1305
53.8979
53.6704
53.4482
53.2311
53.0192
52.8124
52.6107
52.414
52.2223
52.0357
51.854
51.6773
51.5055
51.3386
51.1766
51.0195
50.8672
50.7197
50.577
50.4391
50.306
50.1776
50.054
49.9351
49.8208
49.7113
49.6064
49.5062
49.4106
49.3197
49.2334
49.1516
49.0745
49.002
48.934
48.8707
48.8118
48.7576
48.7079
48.6627
48.622
48.5859
48.5543
48.5272
48.5047
48.4866
48.4731
48.4641
48.4596
74.815
74.2505
73.6941
73.1459
72.6057
72.0735
71.5491
71.0326
70.5237
70.0225
69.5288
69.0425
68.5636
68.0921
67.6278
67.1706
66.7206
66.2775
65.8414
65.4122
64.9898
64.5742
64.1653
63.763
63.3673
62.9781
62.5953
62.219
61.8489
61.4852
61.1277
60.7764
60.4313
60.0922
59.7592
59.4321
59.111
58.7958
58.4864
58.1828
57.885
57.593
57.3066
57.0258
56.7507
56.4811
56.217
55.9585
55.7054
55.4577
55.2154
54.9784
54.7468
54.5205
54.2994
54.0836
53.8729
53.6674
53.4671
53.2719
53.0818
52.8967
52.7167
52.5418
52.3718
52.2067
52.0467
51.8915
51.7413
51.596
51.4555
51.3199
51.1892
51.0632
50.942
50.8257
50.7141
50.6073
50.5052
50.4078
50.3152
50.2272
50.144
50.0654
49.9915
49.9223
49.8577
49.7978
49.7425
49.6918
49.6458
49.6044
49.5676
49.5354
49.5078
49.4849
49.4665
49.4527
49.4435
49.4389
76.2325
75.6586
75.093
74.5357
73.9865
73.4454
72.9123
72.387
71.8696
71.3599
70.8579
70.3634
69.8764
69.3968
68.9246
68.4596
68.0018
67.5512
67.1076
66.671
66.2414
65.8186
65.4026
64.9933
64.5907
64.1947
63.8053
63.4224
63.0459
62.6758
62.3121
61.9546
61.6034
61.2584
60.9195
60.5866
60.2598
59.939
59.6242
59.3153
59.0122
58.7149
58.4234
58.1377
57.8576
57.5832
57.3145
57.0513
56.7936
56.5415
56.2949
56.0537
55.8179
55.5875
55.3624
55.1427
54.9282
54.7191
54.5151
54.3164
54.1228
53.9344
53.7512
53.573
53.3999
53.2319
53.069
52.911
52.7581
52.6101
52.4671
52.329
52.1958
52.0676
51.9442
51.8258
51.7121
51.6033
51.4994
51.4002
51.3059
51.2164
51.1316
51.0516
50.9763
50.9059
50.8401
50.7791
50.7228
50.6712
50.6243
50.5822
50.5447
50.5119
50.4838
50.4604
50.4417
50.4277
50.4183
50.4136
77.6416
77.0585
76.4837
75.9174
75.3593
74.8094
74.2675
73.7337
73.2078
72.6897
72.1794
71.6768
71.1817
70.6942
70.2141
69.7414
69.276
68.8178
68.3668
67.9229
67.486
67.0561
66.6331
66.2169
65.8075
65.4048
65.0088
64.6194
64.2365
63.8601
63.4902
63.1266
62.7693
62.4184
62.0737
61.7351
61.4027
61.0764
60.7561
60.4418
60.1335
59.8311
59.5345
59.2438
58.9589
58.6797
58.4063
58.1385
57.8764
57.6198
57.3689
57.1235
56.8836
56.6491
56.4201
56.1965
55.9783
55.7654
55.5579
55.3557
55.1587
54.967
54.7805
54.5992
54.4231
54.2521
54.0862
53.9255
53.7698
53.6192
53.4737
53.3331
53.1976
53.0671
52.9416
52.821
52.7053
52.5946
52.4888
52.3879
52.2919
52.2007
52.1144
52.033
51.9564
51.8847
51.8178
51.7556
51.6983
51.6458
51.5981
51.5552
51.5171
51.4837
51.4551
51.4313
51.4123
51.398
51.3884
51.3837
79.0421
78.4498
77.8661
77.2908
76.7239
76.1652
75.6148
75.0725
74.5381
74.0118
73.4933
72.9825
72.4795
71.9841
71.4963
71.0159
70.5429
70.0773
69.619
69.1678
68.7238
68.2868
67.8568
67.4338
67.0176
66.6083
66.2057
65.8098
65.4206
65.038
64.6618
64.2922
63.929
63.5722
63.2217
62.8774
62.5395
62.2076
61.882
61.5624
61.2489
60.9414
60.6398
60.3442
60.0544
59.7705
59.4924
59.2201
58.9535
58.6926
58.4374
58.1878
57.9438
57.7053
57.4724
57.245
57.023
56.8065
56.5954
56.3897
56.1894
55.9943
55.8046
55.6202
55.441
55.2671
55.0984
54.9349
54.7765
54.6233
54.4752
54.3323
54.1944
54.0616
53.9339
53.8112
53.6936
53.5809
53.4733
53.3706
53.2729
53.1802
53.0924
53.0096
52.9317
52.8587
52.7906
52.7274
52.6691
52.6157
52.5671
52.5235
52.4847
52.4507
52.4216
52.3974
52.378
52.3635
52.3538
52.349
80.4341
79.8327
79.24
78.6558
78.0802
77.5129
76.9539
76.4032
75.8606
75.326
74.7994
74.2806
73.7697
73.2665
72.771
72.283
71.8025
71.3295
70.8639
70.4055
69.9544
69.5104
69.0736
68.6438
68.2209
67.805
67.3959
66.9936
66.5981
66.2093
65.827
65.4514
65.0823
64.7196
64.3634
64.0136
63.67
63.3328
63.0018
62.6769
62.3583
62.0457
61.7392
61.4386
61.1441
60.8555
60.5728
60.296
60.0249
59.7597
59.5002
59.2465
58.9984
58.756
58.5192
58.2879
58.0623
57.8421
57.6275
57.4184
57.2147
57.0164
56.8235
56.6359
56.4538
56.2769
56.1054
55.9391
55.778
55.6223
55.4717
55.3263
55.1861
55.0511
54.9212
54.7965
54.6768
54.5623
54.4528
54.3484
54.2491
54.1548
54.0655
53.9812
53.902
53.8278
53.7585
53.6943
53.635
53.5806
53.5313
53.4869
53.4474
53.4129
53.3833
53.3587
53.339
53.3242
53.3143
53.3094
81.8173
81.2069
80.6053
80.0124
79.4281
78.8523
78.2849
77.7258
77.1749
76.6322
76.0976
75.5709
75.0522
74.5412
74.0381
73.5426
73.0547
72.5744
72.1015
71.636
71.1779
70.727
70.2833
69.8468
69.4173
68.9948
68.5793
68.1707
67.7689
67.3739
66.9857
66.6041
66.2291
65.8607
65.4988
65.1433
64.7943
64.4517
64.1154
63.7854
63.4616
63.1439
62.8325
62.5271
62.2279
61.9346
61.6473
61.366
61.0906
60.8211
60.5574
60.2995
60.0474
59.801
59.5603
59.3254
59.096
58.8723
58.6542
58.4416
58.2345
58.033
57.8369
57.6463
57.4612
57.2814
57.107
56.938
56.7744
56.616
56.463
56.3152
56.1727
56.0354
55.9034
55.7766
55.655
55.5385
55.4272
55.3211
55.2201
55.1243
55.0335
54.9479
54.8673
54.7919
54.7215
54.6561
54.5959
54.5407
54.4905
54.4453
54.4052
54.3701
54.3401
54.315
54.295
54.2799
54.2699
54.2649
83.1916
82.5724
81.962
81.3604
80.7676
80.1833
79.6075
79.0402
78.4812
77.9304
77.3878
76.8533
76.3268
75.8082
75.2975
74.7946
74.2993
73.8118
73.3317
72.8592
72.3941
71.9363
71.4859
71.0427
70.6066
70.1777
69.7558
69.3409
68.933
68.5319
68.1376
67.7501
67.3693
66.9952
66.6277
66.2667
65.9123
65.5643
65.2227
64.8875
64.5587
64.2361
63.9197
63.6096
63.3056
63.0077
62.7159
62.4301
62.1504
61.8766
61.6087
61.3467
61.0906
60.8404
60.5959
60.3571
60.1241
59.8969
59.6752
59.4593
59.2489
59.0442
58.845
58.6513
58.4632
58.2805
58.1034
57.9316
57.7653
57.6044
57.4489
57.2988
57.154
57.0145
56.8804
56.7515
56.6279
56.5096
56.3965
56.2887
56.1861
56.0887
55.9965
55.9094
55.8276
55.7509
55.6794
55.613
55.5517
55.4956
55.4446
55.3988
55.358
55.3223
55.2918
55.2663
55.246
55.2307
55.2205
55.2154
84.557
83.929
83.3099
82.6998
82.0985
81.5058
80.9218
80.3462
79.7792
79.2204
78.67
78.1277
77.5935
77.0674
76.5492
76.0389
75.5364
75.0416
74.5545
74.075
73.603
73.1384
72.6813
72.2315
71.7889
71.3536
70.9254
70.5042
70.0901
69.683
69.2828
68.8895
68.5029
68.1231
67.75
67.3836
67.0238
66.6705
66.3237
65.9834
65.6495
65.322
65.0008
64.6859
64.3772
64.0747
63.7785
63.4883
63.2042
62.9262
62.6542
62.3882
62.1281
61.8739
61.6256
61.3832
61.1466
60.9158
60.6907
60.4714
60.2577
60.0498
59.8475
59.6508
59.4597
59.2742
59.0943
58.9198
58.7509
58.5875
58.4296
58.2771
58.13
57.9883
57.8521
57.7212
57.5956
57.4755
57.3606
57.2511
57.1468
57.0479
56.9542
56.8658
56.7827
56.7048
56.6321
56.5647
56.5025
56.4455
56.3937
56.3471
56.3057
56.2695
56.2384
56.2126
56.1919
56.1764
56.166
56.1609
85.9133
85.2766
84.649
84.0304
83.4207
82.8197
82.2275
81.6439
81.0688
80.5022
79.9439
79.394
78.8522
78.3186
77.793
77.2754
76.7656
76.2638
75.7696
75.2832
74.8044
74.3331
73.8693
73.413
72.964
72.5223
72.0878
71.6605
71.2404
70.8273
70.4212
70.022
69.6298
69.2444
68.8657
68.4939
68.1287
67.7702
67.4182
67.0729
66.734
66.4016
66.0756
65.7559
65.4426
65.1356
64.8349
64.5404
64.252
63.9698
63.6937
63.4236
63.1596
62.9016
62.6496
62.4034
62.1632
61.9289
61.7004
61.4778
61.2609
61.0497
60.8444
60.6447
60.4507
60.2623
60.0796
59.9026
59.7311
59.5651
59.4048
59.2499
59.1006
58.9568
58.8184
58.6855
58.558
58.436
58.3194
58.2082
58.1023
58.0018
57.9067
57.817
57.7326
57.6535
57.5797
57.5112
57.448
57.3901
57.3375
57.2902
57.2482
57.2114
57.1799
57.1536
57.1326
57.1169
57.1064
57.1011
87.2604
86.6152
85.9791
85.3521
84.7341
84.125
83.5246
82.933
82.3501
81.7756
81.2097
80.6521
80.1028