/*--------------------------------*- C++ -*----------------------------------*\
  =========                 |
  \\      /  F ield         | OpenFOAM: The Open Source CFD Toolbox
   \\    /   O peration     | Website:  https://openfoam.org
    \\  /    A nd           | Version:  7
     \\/     M anipulation  |
\*---------------------------------------------------------------------------*/
FoamFile
{
    version     2.0;
    format      ascii;
    class       volScalarField;
    location    "0.8/solid";
    object      Tsolid;
}
// * * * * * * * * * * * * * * * * * * * * * * * * * * * * * * * * * * * * * //

dimensions      [0 0 0 1 0 0 0];

internalField   nonuniform List<scalar> 
1600
(
312.655
312.298
311.947
311.602
311.262
310.925
310.592
310.262
309.934
309.608
309.285
308.963
308.642
308.323
308.004
307.686
307.37
307.053
306.738
306.422
306.108
305.793
305.479
305.165
304.851
304.537
304.224
303.911
303.598
303.284
302.971
302.659
302.346
302.033
301.72
301.407
301.094
300.782
300.469
300.156
312.648
312.292
311.942
311.598
311.258
310.922
310.589
310.259
309.932
309.606
309.283
308.961
308.641
308.322
308.003
307.686
307.369
307.053
306.737
306.422
306.107
305.793
305.479
305.165
304.851
304.537
304.224
303.911
303.597
303.284
302.971
302.658
302.346
302.033
301.72
301.407
301.094
300.782
300.469
300.156
312.634
312.28
311.931
311.588
311.25
310.915
310.583
310.254
309.927
309.603
309.28
308.959
308.639
308.32
308.001
307.684
307.368
307.052
306.736
306.421
306.107
305.792
305.478
305.164
304.851
304.537
304.224
303.91
303.597
303.284
302.971
302.658
302.346
302.033
301.72
301.407
301.094
300.782
300.469
300.156
312.612
312.261
311.916
311.575
311.238
310.905
310.574
310.247
309.921
309.597
309.275
308.955
308.635
308.317
307.999
307.682
307.366
307.05
306.735
306.42
306.106
305.791
305.477
305.164
304.85
304.537
304.223
303.91
303.597
303.284
302.971
302.658
302.345
302.033
301.72
301.407
301.094
300.782
300.469
300.156
312.585
312.238
311.895
311.557
311.223
310.892
310.563
310.237
309.913
309.59
309.269
308.949
308.631
308.313
307.996
307.679
307.363
307.048
306.733
306.419
306.104
305.79
305.476
305.163
304.849
304.536
304.223
303.91
303.597
303.284
302.971
302.658
302.345
302.032
301.72
301.407
301.094
300.782
300.469
300.156
312.552
312.209
311.87
311.536
311.205
310.876
310.55
310.225
309.903
309.582
309.262
308.943
308.625
308.308
307.992
307.676
307.361
307.046
306.731
306.417
306.103
305.789
305.475
305.162
304.849
304.535
304.222
303.909
303.596
303.283
302.971
302.658
302.345
302.032
301.72
301.407
301.094
300.782
300.469
300.156
312.513
312.176
311.842
311.511
311.184
310.858
310.534
310.212
309.891
309.572
309.254
308.936
308.619
308.303
307.987
307.672
307.357
307.043
306.729
306.415
306.101
305.787
305.474
305.161
304.848
304.535
304.222
303.909
303.596
303.283
302.97
302.657
302.345
302.032
301.719
301.407
301.094
300.782
300.469
300.156
312.47
312.139
311.81
311.484
311.16
310.838
310.517
310.197
309.879
309.561
309.244
308.928
308.612
308.297
307.982
307.668
307.354
307.04
306.726
306.412
306.099
305.786
305.473
305.16
304.847
304.534
304.221
303.908
303.595
303.282
302.97
302.657
302.344
302.032
301.719
301.407
301.094
300.781
300.469
300.156
312.424
312.099
311.776
311.455
311.135
310.816
310.499
310.182
309.865
309.55
309.235
308.92
308.605
308.291
307.977
307.663
307.35
307.036
306.723
306.41
306.097
305.784
305.471
305.158
304.845
304.533
304.22
303.907
303.595
303.282
302.969
302.657
302.344
302.032
301.719
301.406
301.094
300.781
300.469
300.156
312.375
312.057
311.74
311.424
311.109
310.794
310.48
310.165
309.851
309.538
309.224
308.911
308.598
308.285
307.972
307.659
307.346
307.033
306.72
306.408
306.095
305.782
305.47
305.157
304.844
304.532
304.219
303.907
303.594
303.282
302.969
302.656
302.344
302.031
301.719
301.406
301.094
300.781
300.469
300.156
312.325
312.015
311.704
311.393
311.082
310.771
310.46
310.149
309.837
309.526
309.214
308.902
308.59
308.278
307.966
307.654
307.342
307.03
306.717
306.405
306.093
305.78
305.468
305.156
304.843
304.531
304.218
303.906
303.593
303.281
302.969
302.656
302.344
302.031
301.719
301.406
301.094
300.781
300.469
300.156
312.275
311.972
311.668
311.362
311.056
310.749
310.441
310.132
309.823
309.513
309.204
308.893
308.583
308.272
307.961
307.649
307.338
307.026
306.714
306.402
306.091
305.779
305.466
305.154
304.842
304.53
304.218
303.905
303.593
303.28
302.968
302.656
302.343
302.031
301.718
301.406
301.094
300.781
300.469
300.156
312.227
311.931
311.632
311.332
311.03
310.727
310.422
310.116
309.809
309.502
309.194
308.885
308.575
308.265
307.955
307.645
307.334
307.023
306.712
306.4
306.088
305.777
305.465
305.153
304.841
304.529
304.217
303.905
303.592
303.28
302.968
302.655
302.343
302.031
301.718
301.406
301.093
300.781
300.469
300.156
312.18
311.891
311.599
311.303
311.006
310.706
310.404
310.101
309.796
309.491
309.184
308.877
308.568
308.26
307.95
307.64
307.33
307.02
306.709
306.398
306.087
305.775
305.463
305.152
304.84
304.528
304.216
303.904
303.592
303.28
302.967
302.655
302.343
302.03
301.718
301.406
301.093
300.781
300.469
300.156
312.138
311.855
311.568
311.277
310.984
310.687
310.388
310.087
309.785
309.481
309.176
308.869
308.562
308.254
307.946
307.637
307.327
307.017
306.706
306.396
306.085
305.774
305.462
305.151
304.839
304.527
304.215
303.903
303.591
303.279
302.967
302.655
302.343
302.03
301.718
301.406
301.093
300.781
300.469
300.156
312.101
311.823
311.541
311.254
310.964
310.67
310.374
310.075
309.775
309.472
309.168
308.863
308.557
308.25
307.942
307.633
307.324
307.014
306.704
306.394
306.083
305.772
305.461
305.15
304.838
304.526
304.215
303.903
303.591
303.279
302.967
302.655
302.342
302.03
301.718
301.405
301.093
300.781
300.469
300.156
312.069
311.797
311.519
311.235
310.948
310.657
310.362
310.065
309.766
309.465
309.162
308.858
308.552
308.246
307.938
307.63
307.322
307.012
306.703
306.392
306.082
305.771
305.46
305.149
304.837
304.526
304.214
303.902
303.59
303.278
302.966
302.654
302.342
302.03
301.718
301.405
301.093
300.781
300.468
300.156
312.045
311.776
311.501
311.22
310.935
310.646
310.353
310.057
309.759
309.459
309.157
308.854
308.549
308.243
307.936
307.628
307.32
307.011
306.701
306.391
306.081
305.77
305.459
305.148
304.837
304.525
304.214
303.902
303.59
303.278
302.966
302.654
302.342
302.03
301.718
301.405
301.093
300.781
300.468
300.156
312.028
311.762
311.489
311.21
310.927
310.639
310.347
310.052
309.755
309.455
309.154
308.851
308.546
308.241
307.934
307.627
307.318
307.01
306.7
306.39
306.08
305.77
305.459
305.148
304.837
304.525
304.214
303.902
303.59
303.278
302.966
302.654
302.342
302.03
301.718
301.405
301.093
300.781
300.468
300.156
312.019
311.755
311.483
311.205
310.922
310.635
310.344
310.049
309.753
309.453
309.152
308.849
308.545
308.24
307.933
307.626
307.318
307.009
306.7
306.39
306.08
305.769
305.459
305.148
304.836
304.525
304.213
303.902
303.59
303.278
302.966
302.654
302.342
302.03
301.717
301.405
301.093
300.781
300.468
300.156
312.019
311.755
311.483
311.205
310.922
310.635
310.344
310.049
309.753
309.453
309.152
308.849
308.545
308.24
307.933
307.626
307.318
307.009
306.7
306.39
306.08
305.769
305.459
305.148
304.836
304.525
304.213
303.902
303.59
303.278
302.966
302.654
302.342
302.03
301.717
301.405
301.093
300.781
300.468
300.156
312.028
311.762
311.489
311.21
310.927
310.639
310.347
310.052
309.755
309.455
309.154
308.851
308.546
308.241
307.934
307.627
307.318
307.01
306.7
306.39
306.08
305.77
305.459
305.148
304.837
304.525
304.214
303.902
303.59
303.278
302.966
302.654
302.342
302.03
301.718
301.405
301.093
300.781
300.468
300.156
312.045
311.776
311.501
311.22
310.935
310.646
310.353
310.057
309.759
309.459
309.157
308.854
308.549
308.243
307.936
307.628
307.32
307.011
306.701
306.391
306.081
305.77
305.459
305.148
304.837
304.525
304.214
303.902
303.59
303.278
302.966
302.654
302.342
302.03
301.718
301.405
301.093
300.781
300.468
300.156
312.069
311.797
311.519
311.235
310.948
310.657
310.362
310.065
309.766
309.465
309.162
308.858
308.552
308.246
307.938
307.63
307.322
307.012
306.703
306.392
306.082
305.771
305.46
305.149
304.837
304.526
304.214
303.902
303.59
303.278
302.966
302.654
302.342
302.03
301.718
301.405
301.093
300.781
300.468
300.156
312.101
311.823
311.541
311.254
310.964
310.67
310.374
310.075
309.775
309.472
309.168
308.863
308.557
308.25
307.942
307.633
307.324
307.014
306.704
306.394
306.083
305.772
305.461
305.15
304.838
304.526
304.215
303.903
303.591
303.279
302.967
302.655
302.342
302.03
301.718
301.405
301.093
300.781
300.469
300.156
312.138
311.855
311.568
311.277
310.984
310.687
310.388
310.087
309.785
309.481
309.176
308.869
308.562
308.254
307.946
307.637
307.327
307.017
306.706
306.396
306.085
305.774
305.462
305.151
304.839
304.527
304.215
303.903
303.591
303.279
302.967
302.655
302.343
302.03
301.718
301.406
301.093
300.781
300.469
300.156
312.18
311.891
311.599
311.303
311.006
310.706
310.404
310.101
309.796
309.491
309.184
308.877
308.568
308.26
307.95
307.64
307.33
307.02
306.709
306.398
306.087
305.775
305.463
305.152
304.84
304.528
304.216
303.904
303.592
303.28
302.967
302.655
302.343
302.03
301.718
301.406
301.093
300.781
300.469
300.156
312.227
311.931
311.632
311.332
311.03
310.727
310.422
310.116
309.809
309.502
309.194
308.885
308.575
308.265
307.955
307.645
307.334
307.023
306.712
306.4
306.088
305.777
305.465
305.153
304.841
304.529
304.217
303.905
303.592
303.28
302.968
302.655
302.343
302.031
301.718
301.406
301.093
300.781
300.469
300.156
312.275
311.972
311.668
311.362
311.056
310.749
310.441
310.132
309.823
309.513
309.204
308.893
308.583
308.272
307.961
307.649
307.338
307.026
306.714
306.402
306.091
305.779
305.466
305.154
304.842
304.53
304.218
303.905
303.593
303.28
302.968
302.656
302.343
302.031
301.718
301.406
301.094
300.781
300.469
300.156
312.325
312.015
311.704
311.393
311.082
310.771
310.46
310.149
309.837
309.526
309.214
308.902
308.59
308.278
307.966
307.654
307.342
307.03
306.717
306.405
306.093
305.78
305.468
305.156
304.843
304.531
304.218
303.906
303.593
303.281
302.969
302.656
302.344
302.031
301.719
301.406
301.094
300.781
300.469
300.156
312.375
312.057
311.74
311.424
311.109
310.794
310.48
310.165
309.851
309.538
309.224
308.911
308.598
308.285
307.972
307.659
307.346
307.033
306.72
306.408
306.095
305.782
305.47
305.157
304.844
304.532
304.219
303.907
303.594
303.282
302.969
302.656
302.344
302.031
301.719
301.406
301.094
300.781
300.469
300.156
312.424
312.099
311.776
311.455
311.135
310.816
310.499
310.182
309.865
309.55
309.235
308.92
308.605
308.291
307.977
307.663
307.35
307.036
306.723
306.41
306.097
305.784
305.471
305.158
304.845
304.533
304.22
303.907
303.595
303.282
302.969
302.657
302.344
302.032
301.719
301.406
301.094
300.781
300.469
300.156
312.47
312.139
311.81
311.484
311.16
310.838
310.517
310.197
309.879
309.561
309.244
308.928
308.612
308.297
307.982
307.668
307.354
307.04
306.726
306.412
306.099
305.786
305.473
305.16
304.847
304.534
304.221
303.908
303.595
303.282
302.97
302.657
302.344
302.032
301.719
301.407
301.094
300.781
300.469
300.156
312.513
312.176
311.842
311.511
311.184
310.858
310.534
310.212
309.891
309.572
309.254
308.936
308.619
308.303
307.987
307.672
307.357
307.043
306.729
306.415
306.101
305.787
305.474
305.161
304.848
304.535
304.222
303.909
303.596
303.283
302.97
302.657
302.345
302.032
301.719
301.407
301.094
300.782
300.469
300.156
312.552
312.209
311.87
311.536
311.205
310.876
310.55
310.225
309.903
309.582
309.262
308.943
308.625
308.308
307.992
307.676
307.361
307.046
306.731
306.417
306.103
305.789
305.475
305.162
304.849
304.535
304.222
303.909
303.596
303.283
302.971
302.658
302.345
302.032
301.72
301.407
301.094
300.782
300.469
300.156
312.585
312.238
311.895
311.557
311.223
310.892
310.563
310.237
309.913
309.59
309.269
308.949
308.631
308.313
307.996
307.679
307.363
307.048
306.733
306.419
306.104
305.79
305.476
305.163
304.849
304.536
304.223
303.91
303.597
303.284
302.971
302.658
302.345
302.032
301.72
301.407
301.094
300.782
300.469
300.156
312.612
312.261
311.916
311.575
311.238
310.905
310.574
310.247
309.921
309.597
309.275
308.955
308.635
308.317
307.999
307.682
307.366
307.05
306.735
306.42
306.106
305.791
305.477
305.164
304.85
304.537
304.223
303.91
303.597
303.284
302.971
302.658
302.345
302.033
301.72
301.407
301.094
300.782
300.469
300.156
312.634
312.28
311.931
311.588
311.25
310.915
310.583
310.254
309.927
309.603
309.28
308.959
308.639
308.32
308.001
307.684
307.368
307.052
306.736
306.421
306.107
305.792
305.478
305.164
304.851
304.537
304.224
303.91
303.597
303.284
302.971
302.658
302.346
302.033
301.72
301.407
301.094
300.782
300.469
300.156
312.648
312.292
311.942
311.598
311.258
310.922
310.589
310.259
309.932
309.606
309.283
308.961
308.641
308.322
308.003
307.686
307.369
307.053
306.737
306.422
306.107
305.793
305.479
305.165
304.851
304.537
304.224
303.911
303.597
303.284
302.971
302.658
302.346
302.033
301.72
301.407
301.094
300.782
300.469
300.156
312.655
312.298
311.947
311.602
311.262
310.925
310.592
310.262
309.934
309.608
309.285
308.963
308.642
308.323
308.004
307.686
307.37
307.053
306.738
306.422
306.108
305.793
305.479
305.165
304.851
304.537
304.224
303.911
303.598
303.284
302.971
302.659
302.346
302.033
301.72
301.407
301.094
300.782
300.469
300.156
)
;

boundaryField
{
    topWall
    {
        type            zeroGradient;
    }
    rightWall
    {
        type            fixedValue;
        value           uniform 300;
    }
    bottomWall
    {
        type            zeroGradient;
    }
    frontAndBack
    {
        type            empty;
    }
    solid_to_air
    {
        type            compressible::turbulentTemperatureCoupledBaffleMixed;
        refValue        nonuniform List<scalar> 
40
(
313.019
313.011
312.994
312.97
312.938
312.899
312.855
312.805
312.751
312.694
312.636
312.577
312.52
312.466
312.416
312.372
312.334
312.305
312.286
312.275
312.275
312.286
312.305
312.334
312.372
312.416
312.466
312.52
312.577
312.636
312.694
312.751
312.805
312.855
312.899
312.938
312.97
312.994
313.011
313.019
)
;
        refGradient     uniform 0;
        valueFraction   nonuniform List<scalar> 
40
(
0.5
0.5
0.5
0.5
0.5
0.5
0.5
0.5
0.5
0.5
0.5
0.5
0.5
0.5
0.5
0.5
0.5
0.5
0.5
0.5
0.5
0.5
0.5
0.5
0.5
0.5
0.5
0.5
0.5
0.5
0.5
0.5
0.5
0.5
0.5
0.5
0.5
0.5
0.5
0.5
)
;
        value           nonuniform List<scalar> 
40
(
312.837
312.829
312.814
312.791
312.762
312.726
312.684
312.638
312.587
312.535
312.481
312.426
312.373
312.323
312.277
312.236
312.202
312.175
312.157
312.147
312.147
312.157
312.175
312.202
312.236
312.277
312.323
312.373
312.426
312.481
312.535
312.587
312.638
312.684
312.726
312.762
312.791
312.814
312.829
312.837
)
;
        Tnbr            Tair;
        thicknessLayers 0();
        kappaLayers     0();
        kappaMethod     lookup;
        kappa           kappaSolid;
        alphaAni        Anialpha;
    }
}


// ************************************************************************* //
