/*--------------------------------*- C++ -*----------------------------------*\
  =========                 |
  \\      /  F ield         | OpenFOAM: The Open Source CFD Toolbox
   \\    /   O peration     | Website:  https://openfoam.org
    \\  /    A nd           | Version:  7
     \\/     M anipulation  |
\*---------------------------------------------------------------------------*/
FoamFile
{
    version     2.0;
    format      ascii;
    class       volVectorField;
    location    "0.1/solid";
    object      qSolid;
}
// * * * * * * * * * * * * * * * * * * * * * * * * * * * * * * * * * * * * * //

dimensions      [0 -1 0 1 0 0 0];

internalField   nonuniform List<vector> 
1600
(
(14.4208 0.144443 -0)
(14.1515 0.124881 -0)
(13.9188 0.1078 -0)
(13.7181 0.0929299 -0)
(13.5452 0.0800175 -0)
(13.3963 0.0688298 -0)
(13.2683 0.0591549 -0)
(13.1584 0.0508019 -0)
(13.064 0.0436002 -0)
(12.983 0.0373985 -0)
(12.9135 0.0320635 -0)
(12.854 0.0274781 -0)
(12.8029 0.0235398 -0)
(12.7592 0.0201596 -0)
(12.7218 0.0172599 -0)
(12.6898 0.0147735 -0)
(12.6624 0.0126423 -0)
(12.6389 0.0108161 -0)
(12.6189 0.00925159 -0)
(12.6017 0.00791152 -0)
(12.587 0.00676377 -0)
(12.5745 0.00578074 -0)
(12.5638 0.00493872 -0)
(12.5546 0.00421732 -0)
(12.5468 0.00359905 -0)
(12.5401 0.00306888 -0)
(12.5344 0.00261389 -0)
(12.5296 0.00222298 -0)
(12.5255 0.0018866 -0)
(12.522 0.00159652 -0)
(12.5191 0.00134564 -0)
(12.5166 0.00112782 -0)
(12.5145 0.000937703 -0)
(12.5128 0.000770636 -0)
(12.5114 0.000622514 -0)
(12.5103 0.000489697 -0)
(12.5094 0.000368922 -0)
(12.5088 0.00025722 -0)
(12.5084 0.000151844 -0)
(12.5082 5.0203e-05 -0)
(14.379 0.430566 -0)
(14.1149 0.372163 -0)
(13.8869 0.32119 -0)
(13.6903 0.276832 -0)
(13.5211 0.238328 -0)
(13.3754 0.204977 -0)
(13.2503 0.176143 -0)
(13.1428 0.151254 -0)
(13.0506 0.1298 -0)
(12.9714 0.111329 -0)
(12.9036 0.0954409 -0)
(12.8454 0.081787 -0)
(12.7956 0.0700615 -0)
(12.753 0.0599983 -0)
(12.7164 0.0513664 -0)
(12.6852 0.0439653 -0)
(12.6584 0.0376219 -0)
(12.6355 0.0321866 -0)
(12.6159 0.0275304 -0)
(12.5992 0.0235422 -0)
(12.5849 0.0201266 -0)
(12.5726 0.0172012 -0)
(12.5622 0.0146955 -0)
(12.5533 0.0125488 -0)
(12.5456 0.0107091 -0)
(12.5391 0.00913146 -0)
(12.5336 0.00777759 -0)
(12.5289 0.0066144 -0)
(12.5249 0.00561349 -0)
(12.5215 0.00475035 -0)
(12.5186 0.00400387 -0)
(12.5162 0.00335574 -0)
(12.5142 0.00279006 -0)
(12.5125 0.00229297 -0)
(12.5111 0.00185224 -0)
(12.5101 0.00145705 -0)
(12.5092 0.00109769 -0)
(12.5086 0.000765333 -0)
(12.5082 0.000451797 -0)
(12.508 0.000149374 -0)
(14.2958 0.708403 -0)
(14.0421 0.612014 -0)
(13.8235 0.527965 -0)
(13.6352 0.45488 -0)
(13.4733 0.391484 -0)
(13.3341 0.336606 -0)
(13.2146 0.289186 -0)
(13.112 0.248272 -0)
(13.024 0.213018 -0)
(12.9486 0.182676 -0)
(12.884 0.156584 -0)
(12.8286 0.134167 -0)
(12.7812 0.114921 -0)
(12.7406 0.0984059 -0)
(12.7058 0.0842419 -0)
(12.6761 0.0720994 -0)
(12.6506 0.0616933 -0)
(12.6288 0.0527779 -0)
(12.6102 0.0451411 -0)
(12.5943 0.0386005 -0)
(12.5807 0.0329991 -0)
(12.569 0.028202 -0)
(12.5591 0.0240933 -0)
(12.5506 0.0205734 -0)
(12.5434 0.0175569 -0)
(12.5372 0.0149703 -0)
(12.5319 0.0127506 -0)
(12.5274 0.0108436 -0)
(12.5236 0.00920259 -0)
(12.5204 0.00778754 -0)
(12.5177 0.00656374 -0)
(12.5154 0.0055012 -0)
(12.5135 0.00457385 -0)
(12.5119 0.00375892 -0)
(12.5106 0.00303642 -0)
(12.5095 0.00238857 -0)
(12.5088 0.00179947 -0)
(12.5082 0.00125462 -0)
(12.5078 0.000740637 -0)
(12.5076 0.000244871 -0)
(14.1724 0.972453 -0)
(13.9344 0.839527 -0)
(13.7298 0.723774 -0)
(13.5538 0.62324 -0)
(13.4028 0.536123 -0)
(13.2732 0.460778 -0)
(13.162 0.395722 -0)
(13.0666 0.33963 -0)
(12.985 0.291326 -0)
(12.915 0.249771 -0)
(12.8551 0.214054 -0)
(12.8038 0.183378 -0)
(12.7599 0.157048 -0)
(12.7223 0.134462 -0)
(12.6901 0.115096 -0)
(12.6626 0.098497 -0)
(12.6391 0.0842742 -0)
(12.619 0.0720906 -0)
(12.6018 0.0616556 -0)
(12.5871 0.0527195 -0)
(12.5745 0.0450673 -0)
(12.5637 0.0385144 -0)
(12.5546 0.0329023 -0)
(12.5467 0.0280947 -0)
(12.54 0.0239748 -0)
(12.5343 0.0204423 -0)
(12.5295 0.0174109 -0)
(12.5253 0.0148066 -0)
(12.5218 0.0125658 -0)
(12.5188 0.0106335 -0)
(12.5163 0.00896237 -0)
(12.5142 0.00751148 -0)
(12.5124 0.00624521 -0)
(12.511 0.00513247 -0)
(12.5098 0.00414593 -0)
(12.5088 0.00326135 -0)
(12.5081 0.00245698 -0)
(12.5075 0.00171305 -0)
(12.5072 0.00101126 -0)
(12.507 0.000334345 -0)
(14.0107 1.21725 -0)
(13.7935 1.04987 -0)
(13.6072 0.904363 -0)
(13.4476 0.778184 -0)
(13.3108 0.66899 -0)
(13.1937 0.574661 -0)
(13.0935 0.493295 -0)
(13.0076 0.423201 -0)
(12.9342 0.362883 -0)
(12.8713 0.311027 -0)
(12.8176 0.266482 -0)
(12.7716 0.228241 -0)
(12.7322 0.195433 -0)
(12.6986 0.167299 -0)
(12.6698 0.143183 -0)
(12.6452 0.122518 -0)
(12.6242 0.104816 -0)
(12.6062 0.0896545 -0)
(12.5908 0.0766713 -0)
(12.5777 0.0655546 -0)
(12.5665 0.0560362 -0)
(12.5569 0.0478861 -0)
(12.5487 0.0409067 -0)
(12.5417 0.0349283 -0)
(12.5357 0.0298054 -0)
(12.5306 0.0254131 -0)
(12.5263 0.0216441 -0)
(12.5226 0.0184063 -0)
(12.5194 0.0156204 -0)
(12.5168 0.0132182 -0)
(12.5145 0.0111408 -0)
(12.5127 0.00933713 -0)
(12.5111 0.00776303 -0)
(12.5098 0.00637981 -0)
(12.5087 0.00515349 -0)
(12.5079 0.00405392 -0)
(12.5072 0.00305406 -0)
(12.5067 0.00212934 -0)
(12.5064 0.001257 -0)
(12.5063 0.000415593 -0)
(13.813 1.43743 -0)
(13.6215 1.23833 -0)
(13.4581 1.06563 -0)
(13.3185 0.916143 -0)
(13.1993 0.786992 -0)
(13.0975 0.67558 -0)
(13.0105 0.579595 -0)
(12.9362 0.496995 -0)
(12.8728 0.425979 -0)
(12.8186 0.364974 -0)
(12.7723 0.312604 -0)
(12.7327 0.267673 -0)
(12.6989 0.229144 -0)
(12.67 0.196118 -0)
(12.6454 0.167819 -0)
(12.6243 0.143577 -0)
(12.6062 0.122817 -0)
(12.5908 0.10504 -0)
(12.5777 0.0898206 -0)
(12.5664 0.0767912 -0)
(12.5568 0.0656369 -0)
(12.5486 0.0560871 -0)
(12.5416 0.04791 -0)
(12.5356 0.0409063 -0)
(12.5305 0.0349054 -0)
(12.5262 0.0297606 -0)
(12.5224 0.0253462 -0)
(12.5193 0.0215541 -0)
(12.5166 0.0182914 -0)
(12.5143 0.0154782 -0)
(12.5124 0.0130454 -0)
(12.5108 0.0109332 -0)
(12.5095 0.00908998 -0)
(12.5083 0.00747026 -0)
(12.5074 0.00603429 -0)
(12.5067 0.00474676 -0)
(12.5062 0.00357601 -0)
(12.5057 0.00249324 -0)
(12.5055 0.00147182 -0)
(12.5053 0.000486616 -0)
(13.5826 1.62774 -0)
(13.4217 1.40039 -0)
(13.285 1.20367 -0)
(13.169 1.03377 -0)
(13.0703 0.887257 -0)
(12.9863 0.761071 -0)
(12.9149 0.652512 -0)
(12.854 0.559203 -0)
(12.8022 0.479066 -0)
(12.758 0.410286 -0)
(12.7203 0.351287 -0)
(12.6881 0.300703 -0)
(12.6607 0.257351 -0)
(12.6373 0.220209 -0)
(12.6173 0.188397 -0)
(12.6002 0.161156 -0)
(12.5857 0.137834 -0)
(12.5732 0.117869 -0)
(12.5626 0.10078 -0)
(12.5535 0.0861528 -0)
(12.5458 0.0736329 -0)
(12.5391 0.0629156 -0)
(12.5335 0.0537398 -0)
(12.5287 0.0458817 -0)
(12.5246 0.0391492 -0)
(12.5211 0.0333777 -0)
(12.5181 0.0284259 -0)
(12.5155 0.0241724 -0)
(12.5134 0.0205129 -0)
(12.5115 0.0173577 -0)
(12.51 0.0146292 -0)
(12.5087 0.0122605 -0)
(12.5076 0.0101934 -0)
(12.5067 0.00837697 -0)
(12.506 0.00676666 -0)
(12.5054 0.00532283 -0)
(12.505 0.00400998 -0)
(12.5046 0.0027958 -0)
(12.5044 0.00165043 -0)
(12.5043 0.000545666 -0)
(13.3234 1.7832 -0)
(13.1975 1.5318 -0)
(13.0915 1.3149 -0)
(13.0021 1.12801 -0)
(12.9266 0.967192 -0)
(12.8627 0.828936 -0)
(12.8086 0.710178 -0)
(12.7628 0.608241 -0)
(12.7239 0.520794 -0)
(12.6908 0.445816 -0)
(12.6627 0.381556 -0)
(12.6388 0.326501 -0)
(12.6184 0.279347 -0)
(12.6011 0.23897 -0)
(12.5863 0.204404 -0)
(12.5737 0.174816 -0)
(12.5629 0.149493 -0)
(12.5538 0.127822 -0)
(12.546 0.109277 -0)
(12.5393 0.0934073 -0)
(12.5336 0.0798263 -0)
(12.5287 0.0682025 -0)
(12.5246 0.058252 -0)
(12.521 0.0497314 -0)
(12.518 0.0424321 -0)
(12.5154 0.0361752 -0)
(12.5132 0.0308073 -0)
(12.5114 0.0261967 -0)
(12.5098 0.0222302 -0)
(12.5085 0.0188105 -0)
(12.5073 0.0158534 -0)
(12.5064 0.0132862 -0)
(12.5056 0.011046 -0)
(12.5049 0.00907759 -0)
(12.5044 0.00733253 -0)
(12.504 0.00576792 -0)
(12.5036 0.00434527 -0)
(12.5034 0.00302956 -0)
(12.5032 0.00178841 -0)
(12.5032 0.000591287 -0)
(13.0403 1.89919 -0)
(12.9534 1.62873 -0)
(12.8812 1.3961 -0)
(12.8213 1.1962 -0)
(12.7712 1.02456 -0)
(12.7293 0.877302 -0)
(12.6942 0.751023 -0)
(12.6646 0.642788 -0)
(12.6397 0.550054 -0)
(12.6187 0.470628 -0)
(12.601 0.402619 -0)
(12.5859 0.344398 -0)
(12.5732 0.294567 -0)
(12.5623 0.251922 -0)
(12.5531 0.215432 -0)
(12.5453 0.184211 -0)
(12.5387 0.1575 -0)
(12.533 0.134649 -0)
(12.5282 0.115099 -0)
(12.5241 0.0983732 -0)
(12.5206 0.0840624 -0)
(12.5176 0.0718161 -0)
(12.515 0.0613343 -0)
(12.5129 0.0523598 -0)
(12.511 0.0446725 -0)
(12.5094 0.0380837 -0)
(12.5081 0.0324314 -0)
(12.507 0.0275769 -0)
(12.506 0.0234009 -0)
(12.5052 0.0198006 -0)
(12.5045 0.0166875 -0)
(12.5039 0.0139851 -0)
(12.5034 0.0116269 -0)
(12.503 0.00955482 -0)
(12.5027 0.00771796 -0)
(12.5024 0.00607106 -0)
(12.5022 0.00457361 -0)
(12.5021 0.00318875 -0)
(12.502 0.00188238 -0)
(12.5019 0.000622354 -0)
(12.7389 1.97159 -0)
(12.6944 1.68784 -0)
(12.6589 1.44457 -0)
(12.6305 1.23611 -0)
(12.6077 1.05756 -0)
(12.5892 0.904685 -0)
(12.5741 0.773824 -0)
(12.5618 0.661833 -0)
(12.5517 0.566007 -0)
(12.5434 0.484024 -0)
(12.5365 0.413894 -0)
(12.5307 0.353907 -0)
(12.526 0.3026 -0)
(12.522 0.258719 -0)
(12.5186 0.221191 -0)
(12.5158 0.189096 -0)
(12.5134 0.161648 -0)
(12.5114 0.138174 -0)
(12.5097 0.118097 -0)
(12.5082 0.100924 -0)
(12.507 0.086234 -0)
(12.506 0.0736654 -0)
(12.5051 0.0629092 -0)
(12.5044 0.0537011 -0)
(12.5037 0.0458145 -0)
(12.5032 0.0390555 -0)
(12.5027 0.0332578 -0)
(12.5023 0.0282787 -0)
(12.502 0.0239957 -0)
(12.5017 0.0203034 -0)
(12.5015 0.017111 -0)
(12.5013 0.0143397 -0)
(12.5011 0.0119216 -0)
(12.501 0.00979688 -0)
(12.5009 0.00791341 -0)
(12.5008 0.00622476 -0)
(12.5007 0.00468938 -0)
(12.5007 0.00326945 -0)
(12.5007 0.00193001 -0)
(12.5006 0.000638101 -0)
(12.4258 1.99701 -0)
(12.4263 1.70647 -0)
(12.4295 1.45822 -0)
(12.4343 1.24611 -0)
(12.4398 1.06489 -0)
(12.4456 0.910053 -0)
(12.4513 0.777756 -0)
(12.4568 0.664712 -0)
(12.4619 0.568116 -0)
(12.4666 0.485569 -0)
(12.4708 0.415025 -0)
(12.4746 0.354735 -0)
(12.478 0.303206 -0)
(12.4809 0.259163 -0)
(12.4835 0.221516 -0)
(12.4858 0.189334 -0)
(12.4877 0.161822 -0)
(12.4894 0.138301 -0)
(12.4909 0.11819 -0)
(12.4922 0.100993 -0)
(12.4933 0.0862842 -0)
(12.4942 0.0737021 -0)
(12.4951 0.0629361 -0)
(12.4958 0.0537208 -0)
(12.4964 0.0458289 -0)
(12.4969 0.0390661 -0)
(12.4973 0.0332655 -0)
(12.4977 0.0282843 -0)
(12.498 0.0239998 -0)
(12.4983 0.0203064 -0)
(12.4985 0.0171132 -0)
(12.4987 0.0143414 -0)
(12.4989 0.0119227 -0)
(12.499 0.00979774 -0)
(12.4991 0.00791402 -0)
(12.4992 0.0062252 -0)
(12.4993 0.00468968 -0)
(12.4993 0.00326964 -0)
(12.4993 0.00193013 -0)
(12.4994 0.000638137 -0)
(12.1084 1.97299 -0)
(12.1556 1.68282 -0)
(12.1986 1.43573 -0)
(12.2372 1.22523 -0)
(12.2716 1.04583 -0)
(12.302 0.892882 -0)
(12.3288 0.762434 -0)
(12.3522 0.651145 -0)
(12.3726 0.556175 -0)
(12.3903 0.475111 -0)
(12.4056 0.405901 -0)
(12.4189 0.346802 -0)
(12.4304 0.296327 -0)
(12.4403 0.253211 -0)
(12.4488 0.216376 -0)
(12.4561 0.184902 -0)
(12.4624 0.158006 -0)
(12.4677 0.135019 -0)
(12.4724 0.11537 -0)
(12.4763 0.0985719 -0)
(12.4797 0.0842079 -0)
(12.4826 0.0719227 -0)
(12.4851 0.0614123 -0)
(12.4873 0.052417 -0)
(12.4891 0.0447144 -0)
(12.4906 0.0381143 -0)
(12.492 0.0324538 -0)
(12.4931 0.0275933 -0)
(12.494 0.0234129 -0)
(12.4949 0.0198094 -0)
(12.4955 0.0166939 -0)
(12.4961 0.0139898 -0)
(12.4966 0.0116303 -0)
(12.497 0.00955731 -0)
(12.4973 0.00771975 -0)
(12.4976 0.00607234 -0)
(12.4978 0.0045745 -0)
(12.4979 0.00318933 -0)
(12.498 0.00188271 -0)
(12.4981 0.000622459 -0)
(11.7948 1.89823 -0)
(11.8891 1.61609 -0)
(11.9719 1.37665 -0)
(12.0444 1.17325 -0)
(12.1074 1.00033 -0)
(12.1622 0.853206 -0)
(12.2096 0.727953 -0)
(12.2506 0.621258 -0)
(12.2859 0.530327 -0)
(12.3163 0.452797 -0)
(12.3425 0.386668 -0)
(12.365 0.330245 -0)
(12.3844 0.282089 -0)
(12.401 0.240978 -0)
(12.4152 0.205874 -0)
(12.4274 0.175892 -0)
(12.4379 0.150281 -0)
(12.4468 0.128399 -0)
(12.4545 0.1097 -0)
(12.461 0.0937168 -0)
(12.4667 0.0800529 -0)
(12.4715 0.0683685 -0)
(12.4756 0.0583735 -0)
(12.4791 0.0498204 -0)
(12.4821 0.0424973 -0)
(12.4846 0.0362229 -0)
(12.4868 0.0308423 -0)
(12.4886 0.0262223 -0)
(12.4902 0.022249 -0)
(12.4916 0.0188242 -0)
(12.4927 0.0158634 -0)
(12.4936 0.0132936 -0)
(12.4944 0.0110514 -0)
(12.4951 0.00908146 -0)
(12.4956 0.00733533 -0)
(12.496 0.00576991 -0)
(12.4964 0.00434664 -0)
(12.4966 0.00303045 -0)
(12.4968 0.00178892 -0)
(12.4968 0.00059145 -0)
(11.4935 1.77282 -0)
(11.634 1.50667 -0)
(11.7557 1.28153 -0)
(11.8609 1.0908 -0)
(11.9516 0.929023 -0)
(12.0297 0.79166 -0)
(12.0968 0.674913 -0)
(12.1546 0.575608 -0)
(12.2041 0.491079 -0)
(12.2466 0.419083 -0)
(12.2831 0.35773 -0)
(12.3143 0.305421 -0)
(12.3411 0.260805 -0)
(12.364 0.222739 -0)
(12.3837 0.190249 -0)
(12.4005 0.162512 -0)
(12.4149 0.138827 -0)
(12.4272 0.118596 -0)
(12.4377 0.101312 -0)
(12.4467 0.0865429 -0)
(12.4544 0.0739185 -0)
(12.461 0.0631247 -0)
(12.4666 0.053893 -0)
(12.4714 0.0459938 -0)
(12.4755 0.0392313 -0)
(12.479 0.0334379 -0)
(12.482 0.0284699 -0)
(12.4845 0.0242046 -0)
(12.4866 0.0205365 -0)
(12.4885 0.017375 -0)
(12.49 0.0146419 -0)
(12.4913 0.0122698 -0)
(12.4924 0.0102001 -0)
(12.4933 0.00838186 -0)
(12.494 0.00677018 -0)
(12.4946 0.00532533 -0)
(12.495 0.00401171 -0)
(12.4954 0.00279693 -0)
(12.4956 0.00165106 -0)
(12.4957 0.000545871 -0)
(11.2135 1.59844 -0)
(11.3978 1.35625 -0)
(11.5561 1.15199 -0)
(11.6919 0.979388 -0)
(11.8083 0.833308 -0)
(11.9081 0.709497 -0)
(11.9935 0.604432 -0)
(12.0667 0.515183 -0)
(12.1294 0.439298 -0)
(12.183 0.374727 -0)
(12.2289 0.319746 -0)
(12.2681 0.272903 -0)
(12.3017 0.232973 -0)
(12.3304 0.198922 -0)
(12.355 0.169872 -0)
(12.376 0.145081 -0)
(12.3939 0.123918 -0)
(12.4093 0.105847 -0)
(12.4224 0.0904111 -0)
(12.4336 0.0772236 -0)
(12.4432 0.0659535 -0)
(12.4514 0.056319 -0)
(12.4584 0.0480798 -0)
(12.4644 0.0410307 -0)
(12.4695 0.0349964 -0)
(12.4739 0.0298273 -0)
(12.4776 0.025395 -0)
(12.4807 0.0215898 -0)
(12.4834 0.0183176 -0)
(12.4857 0.0154973 -0)
(12.4876 0.0130594 -0)
(12.4892 0.0109435 -0)
(12.4905 0.00909744 -0)
(12.4917 0.00747568 -0)
(12.4926 0.0060382 -0)
(12.4933 0.00474954 -0)
(12.4938 0.00357793 -0)
(12.4943 0.0024945 -0)
(12.4945 0.00147253 -0)
(12.4947 0.000486844 -0)
(10.9635 1.37846 -0)
(11.1876 1.1679 -0)
(11.3789 0.990781 -0)
(11.5422 0.84146 -0)
(11.6817 0.715322 -0)
(11.8008 0.608587 -0)
(11.9025 0.518137 -0)
(11.9894 0.441391 -0)
(12.0637 0.376203 -0)
(12.1271 0.320781 -0)
(12.1813 0.273624 -0)
(12.2276 0.233471 -0)
(12.2671 0.199263 -0)
(12.3009 0.170103 -0)
(12.3298 0.145237 -0)
(12.3545 0.124022 -0)
(12.3756 0.105917 -0)
(12.3937 0.0904609 -0)
(12.4091 0.0772618 -0)
(12.4222 0.0659869 -0)
(12.4335 0.0563528 -0)
(12.4431 0.048118 -0)
(12.4513 0.0410764 -0)
(12.4583 0.0350526 -0)
(12.4643 0.0298964 -0)
(12.4694 0.0254798 -0)
(12.4737 0.0216929 -0)
(12.4774 0.0184421 -0)
(12.4806 0.0156466 -0)
(12.4832 0.0132374 -0)
(12.4855 0.0111548 -0)
(12.4873 0.00934736 -0)
(12.4889 0.00777049 -0)
(12.4902 0.00638523 -0)
(12.4913 0.00515739 -0)
(12.4921 0.00405669 -0)
(12.4928 0.00305598 -0)
(12.4933 0.00213059 -0)
(12.4936 0.00125771 -0)
(12.4937 0.00041582 -0)
(10.7519 1.11805 -0)
(11.0101 0.946094 -0)
(11.2296 0.801783 -0)
(11.4164 0.68035 -0)
(11.5754 0.577935 -0)
(11.7109 0.491391 -0)
(11.8263 0.418137 -0)
(11.9248 0.356043 -0)
(12.0088 0.303343 -0)
(12.0804 0.25857 -0)
(12.1416 0.220497 -0)
(12.1938 0.188096 -0)
(12.2383 0.160504 -0)
(12.2764 0.136992 -0)
(12.3089 0.116949 -0)
(12.3367 0.0998536 -0)
(12.3604 0.0852676 -0)
(12.3806 0.072818 -0)
(12.398 0.0621883 -0)
(12.4127 0.0531096 -0)
(12.4254 0.0453529 -0)
(12.4362 0.0387236 -0)
(12.4454 0.0330554 -0)
(12.4532 0.0282069 -0)
(12.4599 0.0240569 -0)
(12.4656 0.0205024 -0)
(12.4705 0.0174549 -0)
(12.4747 0.0148389 -0)
(12.4782 0.0125894 -0)
(12.4812 0.0106507 -0)
(12.4837 0.00897499 -0)
(12.4858 0.0075207 -0)
(12.4876 0.00625193 -0)
(12.489 0.00513735 -0)
(12.4902 0.00414945 -0)
(12.4912 0.00326385 -0)
(12.4919 0.00245871 -0)
(12.4925 0.00171418 -0)
(12.4928 0.0010119 -0)
(12.493 0.00033455 -0)
(10.5861 0.824062 -0)
(10.8713 0.696648 -0)
(11.1131 0.589907 -0)
(11.3183 0.500221 -0)
(11.4927 0.424676 -0)
(11.641 0.360906 -0)
(11.7672 0.306977 -0)
(11.8746 0.261299 -0)
(11.9662 0.222557 -0)
(12.0442 0.18966 -0)
(12.1108 0.161698 -0)
(12.1676 0.137912 -0)
(12.216 0.117663 -0)
(12.2574 0.100414 -0)
(12.2927 0.0857122 -0)
(12.3228 0.073176 -0)
(12.3486 0.0624817 -0)
(12.3706 0.0533552 -0)
(12.3894 0.0455638 -0)
(12.4054 0.03891 -0)
(12.4191 0.0332258 -0)
(12.4308 0.028368 -0)
(12.4408 0.0242149 -0)
(12.4493 0.0206624 -0)
(12.4566 0.0176221 -0)
(12.4628 0.015018 -0)
(12.4681 0.0127855 -0)
(12.4725 0.0108691 -0)
(12.4764 0.00922132 -0)
(12.4796 0.00780125 -0)
(12.4823 0.00657377 -0)
(12.4846 0.00550852 -0)
(12.4865 0.00457919 -0)
(12.4881 0.0037628 -0)
(12.4894 0.00303921 -0)
(12.4904 0.00239056 -0)
(12.4912 0.00180084 -0)
(12.4918 0.00125552 -0)
(12.4922 0.000741142 -0)
(12.4924 0.000245034 -0)
(10.4719 0.504877 -0)
(10.7759 0.42653 -0)
(11.0332 0.360975 -0)
(11.2512 0.305951 -0)
(11.4361 0.259643 -0)
(11.5932 0.220581 -0)
(11.7267 0.187567 -0)
(11.8404 0.159619 -0)
(11.9371 0.135925 -0)
(12.0195 0.115813 -0)
(12.0898 0.0987244 -0)
(12.1497 0.0841913 -0)
(12.2008 0.071822 -0)
(12.2444 0.0612875 -0)
(12.2817 0.0523103 -0)
(12.3134 0.0446565 -0)
(12.3406 0.038128 -0)
(12.3637 0.0325572 -0)
(12.3835 0.0278018 -0)
(12.4004 0.023741 -0)
(12.4148 0.0202721 -0)
(12.4271 0.0173078 -0)
(12.4377 0.0147736 -0)
(12.4466 0.012606 -0)
(12.4543 0.0107509 -0)
(12.4608 0.0091621 -0)
(12.4664 0.00780002 -0)
(12.4711 0.00663083 -0)
(12.4751 0.00562551 -0)
(12.4785 0.00475915 -0)
(12.4814 0.0040103 -0)
(12.4838 0.00336044 -0)
(12.4858 0.00279349 -0)
(12.4875 0.00229545 -0)
(12.4889 0.00185403 -0)
(12.4899 0.00145833 -0)
(12.4908 0.00109858 -0)
(12.4914 0.000765908 -0)
(12.4918 0.000452121 -0)
(12.492 0.000149479 -0)
(10.4137 0.170059 -0)
(10.7274 0.14362 -0)
(10.9925 0.121512 -0)
(11.217 0.102965 -0)
(11.4073 0.087363 -0)
(11.5689 0.0742071 -0)
(11.7062 0.0630917 -0)
(11.823 0.0536842 -0)
(11.9224 0.0457105 -0)
(12.007 0.0389437 -0)
(12.0792 0.0331949 -0)
(12.1407 0.0283065 -0)
(12.1931 0.0241465 -0)
(12.2379 0.0206038 -0)
(12.2761 0.0175852 -0)
(12.3087 0.0150117 -0)
(12.3365 0.0128167 -0)
(12.3603 0.0109438 -0)
(12.3805 0.00934512 -0)
(12.3979 0.00798 -0)
(12.4127 0.00681391 -0)
(12.4253 0.00581746 -0)
(12.4361 0.00496561 -0)
(12.4453 0.00423701 -0)
(12.4531 0.00361347 -0)
(12.4598 0.00307944 -0)
(12.4655 0.00262162 -0)
(12.4704 0.00222864 -0)
(12.4745 0.00189074 -0)
(12.478 0.00159955 -0)
(12.4809 0.00134786 -0)
(12.4834 0.00112944 -0)
(12.4855 0.000938884 -0)
(12.4872 0.000771494 -0)
(12.4886 0.000623132 -0)
(12.4897 0.000490137 -0)
(12.4906 0.000369226 -0)
(12.4912 0.000257418 -0)
(12.4916 0.000151956 -0)
(12.4918 5.02391e-05 -0)
(10.4137 -0.170059 -0)
(10.7274 -0.14362 -0)
(10.9925 -0.121512 -0)
(11.217 -0.102965 -0)
(11.4073 -0.087363 -0)
(11.5689 -0.0742071 -0)
(11.7062 -0.0630917 -0)
(11.823 -0.0536842 -0)
(11.9224 -0.0457105 -0)
(12.007 -0.0389437 -0)
(12.0792 -0.0331949 -0)
(12.1407 -0.0283065 -0)
(12.1931 -0.0241465 -0)
(12.2379 -0.0206038 -0)
(12.2761 -0.0175852 -0)
(12.3087 -0.0150117 -0)
(12.3365 -0.0128167 -0)
(12.3603 -0.0109438 -0)
(12.3805 -0.00934512 -0)
(12.3979 -0.00798 -0)
(12.4127 -0.00681391 -0)
(12.4253 -0.00581746 -0)
(12.4361 -0.00496561 -0)
(12.4453 -0.00423701 -0)
(12.4531 -0.00361347 -0)
(12.4598 -0.00307944 -0)
(12.4655 -0.00262162 -0)
(12.4704 -0.00222864 -0)
(12.4745 -0.00189074 -0)
(12.478 -0.00159955 -0)
(12.4809 -0.00134786 -0)
(12.4834 -0.00112944 -0)
(12.4855 -0.000938884 -0)
(12.4872 -0.000771494 -0)
(12.4886 -0.000623132 -0)
(12.4897 -0.000490137 -0)
(12.4906 -0.000369226 -0)
(12.4912 -0.000257418 -0)
(12.4916 -0.000151956 -0)
(12.4918 -5.02391e-05 -0)
(10.4719 -0.504877 -0)
(10.7759 -0.42653 -0)
(11.0332 -0.360975 -0)
(11.2512 -0.305951 -0)
(11.4361 -0.259643 -0)
(11.5932 -0.220581 -0)
(11.7267 -0.187567 -0)
(11.8404 -0.159619 -0)
(11.9371 -0.135925 -0)
(12.0195 -0.115813 -0)
(12.0898 -0.0987244 -0)
(12.1497 -0.0841913 -0)
(12.2008 -0.071822 -0)
(12.2444 -0.0612875 -0)
(12.2817 -0.0523103 -0)
(12.3134 -0.0446565 -0)
(12.3406 -0.038128 -0)
(12.3637 -0.0325572 -0)
(12.3835 -0.0278018 -0)
(12.4004 -0.023741 -0)
(12.4148 -0.0202721 -0)
(12.4271 -0.0173078 -0)
(12.4377 -0.0147736 -0)
(12.4466 -0.012606 -0)
(12.4543 -0.0107509 -0)
(12.4608 -0.0091621 -0)
(12.4664 -0.00780002 -0)
(12.4711 -0.00663083 -0)
(12.4751 -0.00562551 -0)
(12.4785 -0.00475915 -0)
(12.4814 -0.0040103 -0)
(12.4838 -0.00336044 -0)
(12.4858 -0.00279349 -0)
(12.4875 -0.00229545 -0)
(12.4889 -0.00185403 -0)
(12.4899 -0.00145833 -0)
(12.4908 -0.00109858 -0)
(12.4914 -0.000765908 -0)
(12.4918 -0.000452121 -0)
(12.492 -0.000149479 -0)
(10.5861 -0.824062 -0)
(10.8713 -0.696648 -0)
(11.1131 -0.589907 -0)
(11.3183 -0.500221 -0)
(11.4927 -0.424676 -0)
(11.641 -0.360906 -0)
(11.7672 -0.306977 -0)
(11.8746 -0.261299 -0)
(11.9662 -0.222557 -0)
(12.0442 -0.18966 -0)
(12.1108 -0.161698 -0)
(12.1676 -0.137912 -0)
(12.216 -0.117663 -0)
(12.2574 -0.100414 -0)
(12.2927 -0.0857122 -0)
(12.3228 -0.073176 -0)
(12.3486 -0.0624817 -0)
(12.3706 -0.0533552 -0)
(12.3894 -0.0455638 -0)
(12.4054 -0.03891 -0)
(12.4191 -0.0332258 -0)
(12.4308 -0.028368 -0)
(12.4408 -0.0242149 -0)
(12.4493 -0.0206624 -0)
(12.4566 -0.0176221 -0)
(12.4628 -0.015018 -0)
(12.4681 -0.0127855 -0)
(12.4725 -0.0108691 -0)
(12.4764 -0.00922132 -0)
(12.4796 -0.00780125 -0)
(12.4823 -0.00657377 -0)
(12.4846 -0.00550852 -0)
(12.4865 -0.00457919 -0)
(12.4881 -0.0037628 -0)
(12.4894 -0.00303921 -0)
(12.4904 -0.00239056 -0)
(12.4912 -0.00180084 -0)
(12.4918 -0.00125552 -0)
(12.4922 -0.000741142 -0)
(12.4924 -0.000245034 -0)
(10.7519 -1.11805 -0)
(11.0101 -0.946094 -0)
(11.2296 -0.801783 -0)
(11.4164 -0.68035 -0)
(11.5754 -0.577935 -0)
(11.7109 -0.491391 -0)
(11.8263 -0.418137 -0)
(11.9248 -0.356043 -0)
(12.0088 -0.303343 -0)
(12.0804 -0.25857 -0)
(12.1416 -0.220497 -0)
(12.1938 -0.188096 -0)
(12.2383 -0.160504 -0)
(12.2764 -0.136992 -0)
(12.3089 -0.116949 -0)
(12.3367 -0.0998536 -0)
(12.3604 -0.0852676 -0)
(12.3806 -0.072818 -0)
(12.398 -0.0621883 -0)
(12.4127 -0.0531096 -0)
(12.4254 -0.0453529 -0)
(12.4362 -0.0387236 -0)
(12.4454 -0.0330554 -0)
(12.4532 -0.0282069 -0)
(12.4599 -0.0240569 -0)
(12.4656 -0.0205024 -0)
(12.4705 -0.0174549 -0)
(12.4747 -0.0148389 -0)
(12.4782 -0.0125894 -0)
(12.4812 -0.0106507 -0)
(12.4837 -0.00897499 -0)
(12.4858 -0.0075207 -0)
(12.4876 -0.00625193 -0)
(12.489 -0.00513735 -0)
(12.4902 -0.00414945 -0)
(12.4912 -0.00326385 -0)
(12.4919 -0.00245871 -0)
(12.4925 -0.00171418 -0)
(12.4928 -0.0010119 -0)
(12.493 -0.00033455 -0)
(10.9635 -1.37846 -0)
(11.1876 -1.1679 -0)
(11.3789 -0.990781 -0)
(11.5422 -0.84146 -0)
(11.6817 -0.715322 -0)
(11.8008 -0.608587 -0)
(11.9025 -0.518137 -0)
(11.9894 -0.441391 -0)
(12.0637 -0.376203 -0)
(12.1271 -0.320781 -0)
(12.1813 -0.273624 -0)
(12.2276 -0.233471 -0)
(12.2671 -0.199263 -0)
(12.3009 -0.170103 -0)
(12.3298 -0.145237 -0)
(12.3545 -0.124022 -0)
(12.3756 -0.105917 -0)
(12.3937 -0.0904609 -0)
(12.4091 -0.0772618 -0)
(12.4222 -0.0659869 -0)
(12.4335 -0.0563528 -0)
(12.4431 -0.048118 -0)
(12.4513 -0.0410764 -0)
(12.4583 -0.0350526 -0)
(12.4643 -0.0298964 -0)
(12.4694 -0.0254798 -0)
(12.4737 -0.0216929 -0)
(12.4774 -0.0184421 -0)
(12.4806 -0.0156466 -0)
(12.4832 -0.0132374 -0)
(12.4855 -0.0111548 -0)
(12.4873 -0.00934736 -0)
(12.4889 -0.00777049 -0)
(12.4902 -0.00638523 -0)
(12.4913 -0.00515739 -0)
(12.4921 -0.00405669 -0)
(12.4928 -0.00305598 -0)
(12.4933 -0.00213059 -0)
(12.4936 -0.00125771 -0)
(12.4937 -0.00041582 -0)
(11.2135 -1.59844 -0)
(11.3978 -1.35625 -0)
(11.5561 -1.15199 -0)
(11.6919 -0.979388 -0)
(11.8083 -0.833308 -0)
(11.9081 -0.709497 -0)
(11.9935 -0.604432 -0)
(12.0667 -0.515183 -0)
(12.1294 -0.439298 -0)
(12.183 -0.374727 -0)
(12.2289 -0.319746 -0)
(12.2681 -0.272903 -0)
(12.3017 -0.232973 -0)
(12.3304 -0.198922 -0)
(12.355 -0.169872 -0)
(12.376 -0.145081 -0)
(12.3939 -0.123918 -0)
(12.4093 -0.105847 -0)
(12.4224 -0.0904111 -0)
(12.4336 -0.0772236 -0)
(12.4432 -0.0659535 -0)
(12.4514 -0.056319 -0)
(12.4584 -0.0480798 -0)
(12.4644 -0.0410307 -0)
(12.4695 -0.0349964 -0)
(12.4739 -0.0298273 -0)
(12.4776 -0.025395 -0)
(12.4807 -0.0215898 -0)
(12.4834 -0.0183176 -0)
(12.4857 -0.0154973 -0)
(12.4876 -0.0130594 -0)
(12.4892 -0.0109435 -0)
(12.4905 -0.00909744 -0)
(12.4917 -0.00747568 -0)
(12.4926 -0.0060382 -0)
(12.4933 -0.00474954 -0)
(12.4938 -0.00357793 -0)
(12.4943 -0.0024945 -0)
(12.4945 -0.00147253 -0)
(12.4947 -0.000486844 -0)
(11.4935 -1.77282 -0)
(11.634 -1.50667 -0)
(11.7557 -1.28153 -0)
(11.8609 -1.0908 -0)
(11.9516 -0.929023 -0)
(12.0297 -0.79166 -0)
(12.0968 -0.674913 -0)
(12.1546 -0.575608 -0)
(12.2041 -0.491079 -0)
(12.2466 -0.419083 -0)
(12.2831 -0.35773 -0)
(12.3143 -0.305421 -0)
(12.3411 -0.260805 -0)
(12.364 -0.222739 -0)
(12.3837 -0.190249 -0)
(12.4005 -0.162512 -0)
(12.4149 -0.138827 -0)
(12.4272 -0.118596 -0)
(12.4377 -0.101312 -0)
(12.4467 -0.0865429 -0)
(12.4544 -0.0739185 -0)
(12.461 -0.0631247 -0)
(12.4666 -0.053893 -0)
(12.4714 -0.0459938 -0)
(12.4755 -0.0392313 -0)
(12.479 -0.0334379 -0)
(12.482 -0.0284699 -0)
(12.4845 -0.0242046 -0)
(12.4866 -0.0205365 -0)
(12.4885 -0.017375 -0)
(12.49 -0.0146419 -0)
(12.4913 -0.0122698 -0)
(12.4924 -0.0102001 -0)
(12.4933 -0.00838186 -0)
(12.494 -0.00677018 -0)
(12.4946 -0.00532533 -0)
(12.495 -0.00401171 -0)
(12.4954 -0.00279693 -0)
(12.4956 -0.00165106 -0)
(12.4957 -0.000545871 -0)
(11.7948 -1.89823 -0)
(11.8891 -1.61609 -0)
(11.9719 -1.37665 -0)
(12.0444 -1.17325 -0)
(12.1074 -1.00033 -0)
(12.1622 -0.853206 -0)
(12.2096 -0.727953 -0)
(12.2506 -0.621258 -0)
(12.2859 -0.530327 -0)
(12.3163 -0.452797 -0)
(12.3425 -0.386668 -0)
(12.365 -0.330245 -0)
(12.3844 -0.282089 -0)
(12.401 -0.240978 -0)
(12.4152 -0.205874 -0)
(12.4274 -0.175892 -0)
(12.4379 -0.150281 -0)
(12.4468 -0.128399 -0)
(12.4545 -0.1097 -0)
(12.461 -0.0937168 -0)
(12.4667 -0.0800529 -0)
(12.4715 -0.0683685 -0)
(12.4756 -0.0583735 -0)
(12.4791 -0.0498204 -0)
(12.4821 -0.0424973 -0)
(12.4846 -0.0362229 -0)
(12.4868 -0.0308423 -0)
(12.4886 -0.0262223 -0)
(12.4902 -0.022249 -0)
(12.4916 -0.0188242 -0)
(12.4927 -0.0158634 -0)
(12.4936 -0.0132936 -0)
(12.4944 -0.0110514 -0)
(12.4951 -0.00908146 -0)
(12.4956 -0.00733533 -0)
(12.496 -0.00576991 -0)
(12.4964 -0.00434664 -0)
(12.4966 -0.00303045 -0)
(12.4968 -0.00178892 -0)
(12.4968 -0.00059145 -0)
(12.1084 -1.97299 -0)
(12.1556 -1.68282 -0)
(12.1986 -1.43573 -0)
(12.2372 -1.22523 -0)
(12.2716 -1.04583 -0)
(12.302 -0.892882 -0)
(12.3288 -0.762434 -0)
(12.3522 -0.651145 -0)
(12.3726 -0.556175 -0)
(12.3903 -0.475111 -0)
(12.4056 -0.405901 -0)
(12.4189 -0.346802 -0)
(12.4304 -0.296327 -0)
(12.4403 -0.253211 -0)
(12.4488 -0.216376 -0)
(12.4561 -0.184902 -0)
(12.4624 -0.158006 -0)
(12.4677 -0.135019 -0)
(12.4724 -0.11537 -0)
(12.4763 -0.0985719 -0)
(12.4797 -0.0842079 -0)
(12.4826 -0.0719227 -0)
(12.4851 -0.0614123 -0)
(12.4873 -0.052417 -0)
(12.4891 -0.0447144 -0)
(12.4906 -0.0381143 -0)
(12.492 -0.0324538 -0)
(12.4931 -0.0275933 -0)
(12.494 -0.0234129 -0)
(12.4949 -0.0198094 -0)
(12.4955 -0.0166939 -0)
(12.4961 -0.0139898 -0)
(12.4966 -0.0116303 -0)
(12.497 -0.00955731 -0)
(12.4973 -0.00771975 -0)
(12.4976 -0.00607234 -0)
(12.4978 -0.0045745 -0)
(12.4979 -0.00318933 -0)
(12.498 -0.00188271 -0)
(12.4981 -0.000622459 -0)
(12.4258 -1.99701 -0)
(12.4263 -1.70647 -0)
(12.4295 -1.45822 -0)
(12.4343 -1.24611 -0)
(12.4398 -1.06489 -0)
(12.4456 -0.910053 -0)
(12.4513 -0.777756 -0)
(12.4568 -0.664712 -0)
(12.4619 -0.568116 -0)
(12.4666 -0.485569 -0)
(12.4708 -0.415025 -0)
(12.4746 -0.354735 -0)
(12.478 -0.303206 -0)
(12.4809 -0.259163 -0)
(12.4835 -0.221516 -0)
(12.4858 -0.189334 -0)
(12.4877 -0.161822 -0)
(12.4894 -0.138301 -0)
(12.4909 -0.11819 -0)
(12.4922 -0.100993 -0)
(12.4933 -0.0862842 -0)
(12.4942 -0.0737021 -0)
(12.4951 -0.0629361 -0)
(12.4958 -0.0537208 -0)
(12.4964 -0.0458289 -0)
(12.4969 -0.0390661 -0)
(12.4973 -0.0332655 -0)
(12.4977 -0.0282843 -0)
(12.498 -0.0239998 -0)
(12.4983 -0.0203064 -0)
(12.4985 -0.0171132 -0)
(12.4987 -0.0143414 -0)
(12.4989 -0.0119227 -0)
(12.499 -0.00979774 -0)
(12.4991 -0.00791402 -0)
(12.4992 -0.0062252 -0)
(12.4993 -0.00468968 -0)
(12.4993 -0.00326964 -0)
(12.4993 -0.00193013 -0)
(12.4994 -0.000638137 -0)
(12.7389 -1.97159 -0)
(12.6944 -1.68784 -0)
(12.6589 -1.44457 -0)
(12.6305 -1.23611 -0)
(12.6077 -1.05756 -0)
(12.5892 -0.904685 -0)
(12.5741 -0.773824 -0)
(12.5618 -0.661833 -0)
(12.5517 -0.566007 -0)
(12.5434 -0.484024 -0)
(12.5365 -0.413894 -0)
(12.5307 -0.353907 -0)
(12.526 -0.3026 -0)
(12.522 -0.258719 -0)
(12.5186 -0.221191 -0)
(12.5158 -0.189096 -0)
(12.5134 -0.161648 -0)
(12.5114 -0.138174 -0)
(12.5097 -0.118097 -0)
(12.5082 -0.100924 -0)
(12.507 -0.086234 -0)
(12.506 -0.0736654 -0)
(12.5051 -0.0629092 -0)
(12.5044 -0.0537011 -0)
(12.5037 -0.0458145 -0)
(12.5032 -0.0390555 -0)
(12.5027 -0.0332578 -0)
(12.5023 -0.0282787 -0)
(12.502 -0.0239957 -0)
(12.5017 -0.0203034 -0)
(12.5015 -0.017111 -0)
(12.5013 -0.0143397 -0)
(12.5011 -0.0119216 -0)
(12.501 -0.00979688 -0)
(12.5009 -0.00791341 -0)
(12.5008 -0.00622476 -0)
(12.5007 -0.00468938 -0)
(12.5007 -0.00326945 -0)
(12.5007 -0.00193001 -0)
(12.5006 -0.000638101 -0)
(13.0403 -1.89919 -0)
(12.9534 -1.62873 -0)
(12.8812 -1.3961 -0)
(12.8213 -1.1962 -0)
(12.7712 -1.02456 -0)
(12.7293 -0.877302 -0)
(12.6942 -0.751023 -0)
(12.6646 -0.642788 -0)
(12.6397 -0.550054 -0)
(12.6187 -0.470628 -0)
(12.601 -0.402619 -0)
(12.5859 -0.344398 -0)
(12.5732 -0.294567 -0)
(12.5623 -0.251922 -0)
(12.5531 -0.215432 -0)
(12.5453 -0.184211 -0)
(12.5387 -0.1575 -0)
(12.533 -0.134649 -0)
(12.5282 -0.115099 -0)
(12.5241 -0.0983732 -0)
(12.5206 -0.0840624 -0)
(12.5176 -0.0718161 -0)
(12.515 -0.0613343 -0)
(12.5129 -0.0523598 -0)
(12.511 -0.0446725 -0)
(12.5094 -0.0380837 -0)
(12.5081 -0.0324314 -0)
(12.507 -0.0275769 -0)
(12.506 -0.0234009 -0)
(12.5052 -0.0198006 -0)
(12.5045 -0.0166875 -0)
(12.5039 -0.0139851 -0)
(12.5034 -0.0116269 -0)
(12.503 -0.00955482 -0)