/*--------------------------------*- C++ -*----------------------------------*\
  =========                 |
  \\      /  F ield         | OpenFOAM: The Open Source CFD Toolbox
   \\    /   O peration     | Website:  https://openfoam.org
    \\  /    A nd           | Version:  7
     \\/     M anipulation  |
\*---------------------------------------------------------------------------*/
FoamFile
{
    version     2.0;
    format      ascii;
    class       volVectorField;
    location    "0.1/solid";
    object      qSolid;
}
// * * * * * * * * * * * * * * * * * * * * * * * * * * * * * * * * * * * * * //

dimensions      [0 -1 0 1 0 0 0];

internalField   nonuniform List<vector> 
1600
(
(-134.221 -0.370449 -0)
(-134.244 -0.193203 -0)
(-134.206 -0.19 -0)
(-134.012 -0.271304 -0)
(-134.276 -0.0601148 -0)
(-134.239 0.0345253 -0)
(-134.121 0.0434094 -0)
(-134.1 0.0766951 -0)
(-133.879 -0.0440125 -0)
(-133.982 -0.0645397 -0)
(-134.116 0.0625174 -0)
(-133.893 0.032969 -0)
(-133.905 -0.0957159 -0)
(-134.108 -0.0744714 -0)
(-133.995 0.0519135 -0)
(-133.742 0.0804689 -0)
(-133.795 -0.0178776 -0)
(-134.07 -0.104078 -0)
(-134.162 -0.0817429 -0)
(-133.952 0.00753339 -0)
(-133.713 0.0643726 -0)
(-133.724 0.0429227 -0)
(-133.975 -0.0235963 -0)
(-134.233 -0.0734056 -0)
(-134.298 -0.0716416 -0)
(-134.163 -0.0272947 -0)
(-133.98 0.024801 -0)
(-133.919 0.0525888 -0)
(-134.042 0.0452059 -0)
(-134.291 0.0136751 -0)
(-134.536 -0.0208565 -0)
(-134.668 -0.040579 -0)
(-134.647 -0.0384661 -0)
(-134.511 -0.018426 -0)
(-134.341 0.0089954 -0)
(-134.217 0.032067 -0)
(-134.184 0.0424021 -0)
(-134.241 0.0375765 -0)
(-134.348 0.0216925 -0)
(-134.452 0.00531701 -0)
(-133.882 -0.276475 -0)
(-134.064 -0.24354 -0)
(-134.284 -0.108261 -0)
(-133.882 -0.351975 -0)
(-133.97 -0.161103 -0)
(-134.136 0.0513671 -0)
(-134.079 -0.043886 -0)
(-134.187 -0.00704637 -0)
(-134.02 0.0563418 -0)
(-133.876 0.00859356 -0)
(-134.018 -0.0392681 -0)
(-134.052 -0.0950173 -0)
(-134.012 -0.102961 -0)
(-133.96 -0.00691952 -0)
(-133.84 0.0669676 -0)
(-133.812 -0.00238329 -0)
(-133.979 -0.137524 -0)
(-134.134 -0.180301 -0)
(-134.05 -0.0936474 -0)
(-133.806 0.0194228 -0)
(-133.677 0.0474014 -0)
(-133.812 -0.0239396 -0)
(-134.092 -0.121349 -0)
(-134.281 -0.164148 -0)
(-134.252 -0.126711 -0)
(-134.066 -0.0425806 -0)
(-133.9 0.032367 -0)
(-133.898 0.0598595 -0)
(-134.081 0.036938 -0)
(-134.357 -0.0114915 -0)
(-134.59 -0.0527999 -0)
(-134.685 -0.0645541 -0)
(-134.625 -0.0422098 -0)
(-134.463 0.00316419 -0)
(-134.29 0.0526378 -0)
(-134.183 0.0880434 -0)
(-134.178 0.098441 -0)
(-134.262 0.0830089 -0)
(-134.38 0.0503197 -0)
(-134.479 0.0151506 -0)
(-133.994 0.0755267 -0)
(-134.076 -0.112307 -0)
(-134.314 0.205029 -0)
(-134.065 0.104989 -0)
(-133.872 -0.205912 -0)
(-134.122 -0.146137 -0)
(-134.18 -0.0488499 -0)
(-133.999 -0.0038877 -0)
(-133.863 0.0703404 -0)
(-134.078 -0.0304089 -0)
(-134.219 -0.176209 -0)
(-133.957 -0.127119 -0)
(-133.817 0.0238967 -0)
(-133.938 0.0537175 -0)
(-133.99 -0.0687153 -0)
(-133.946 -0.196903 -0)
(-133.973 -0.208821 -0)
(-134.027 -0.120006 -0)
(-133.962 -0.033686 -0)
(-133.811 -0.0278809 -0)
(-133.756 -0.0974999 -0)
(-133.892 -0.179743 -0)
(-134.115 -0.214208 -0)
(-134.239 -0.183276 -0)
(-134.176 -0.112894 -0)
(-134.003 -0.0459446 -0)
(-133.878 -0.0128481 -0)
(-133.914 -0.0177458 -0)
(-134.114 -0.0432572 -0)
(-134.38 -0.0649706 -0)
(-134.589 -0.0648229 -0)
(-134.657 -0.0375872 -0)
(-134.579 0.00965329 -0)
(-134.416 0.0624287 -0)
(-134.256 0.105274 -0)
(-134.171 0.12719 -0)
(-134.189 0.124562 -0)
(-134.289 0.100998 -0)
(-134.416 0.0645185 -0)
(-134.517 0.0225147 -0)
(-134.072 -0.010743 -0)
(-133.934 -0.0342322 -0)
(-134.067 0.0284483 -0)
(-134.293 0.114581 -0)
(-134.221 -0.0691789 -0)
(-133.979 -0.117191 -0)
(-133.937 0.0478949 -0)
(-134.068 0.0322607 -0)
(-134.047 -0.111323 -0)
(-134.122 -0.158515 -0)
(-134.115 -0.078411 -0)
(-133.852 0.0132191 -0)
(-133.831 0.00882731 -0)
(-134.053 -0.0894282 -0)
(-134.091 -0.188472 -0)
(-133.952 -0.207939 -0)
(-133.902 -0.151654 -0)
(-133.959 -0.0868115 -0)
(-133.958 -0.0751408 -0)
(-133.87 -0.125835 -0)
(-133.829 -0.199325 -0)
(-133.928 -0.245136 -0)
(-134.095 -0.238042 -0)
(-134.18 -0.188376 -0)
(-134.114 -0.127305 -0)
(-133.966 -0.0839483 -0)
(-133.872 -0.0702152 -0)
(-133.929 -0.0789518 -0)
(-134.128 -0.091998 -0)
(-134.378 -0.0912575 -0)
(-134.563 -0.0669603 -0)
(-134.611 -0.0204724 -0)
(-134.525 0.0378942 -0)
(-134.368 0.093874 -0)
(-134.226 0.134555 -0)
(-134.164 0.152136 -0)
(-134.205 0.145227 -0)
(-134.322 0.117763 -0)
(-134.459 0.0762779 -0)
(-134.566 0.026975 -0)
(-134.042 -0.0368206 -0)
(-134.037 -0.0996804 -0)
(-134.166 -0.173193 -0)
(-134.162 -0.0899873 -0)
(-134.104 0.0711392 -0)
(-134.005 0.0588537 -0)
(-134.03 -0.033906 -0)
(-134.159 -0.113067 -0)
(-134.054 -0.124513 -0)
(-134.045 -0.0630313 -0)
(-134.048 -0.00100109 -0)
(-133.87 -0.0100345 -0)
(-133.919 -0.0866233 -0)
(-134.135 -0.16711 -0)
(-134.109 -0.193996 -0)
(-133.91 -0.162418 -0)
(-133.851 -0.115172 -0)
(-133.95 -0.101218 -0)
(-134.001 -0.1373 -0)
(-133.935 -0.201261 -0)
(-133.875 -0.254217 -0)
(-133.931 -0.268754 -0)
(-134.059 -0.243145 -0)
(-134.128 -0.196629 -0)
(-134.072 -0.153902 -0)
(-133.946 -0.130749 -0)
(-133.873 -0.128031 -0)
(-133.936 -0.134366 -0)
(-134.126 -0.133798 -0)
(-134.355 -0.113953 -0)
(-134.518 -0.0711846 -0)
(-134.552 -0.0111748 -0)
(-134.465 0.0542307 -0)
(-134.319 0.111757 -0)
(-134.198 0.150838 -0)
(-134.16 0.165921 -0)
(-134.223 0.156752 -0)
(-134.358 0.127056 -0)
(-134.507 0.0825345 -0)
(-134.621 0.0292114 -0)
(-134.117 -0.0268274 -0)
(-134.071 -0.145333 -0)
(-134.057 -0.0856832 -0)
(-134.048 -0.0231529 -0)
(-134.072 0.0190006 -0)
(-134.084 -0.0234985 -0)
(-134.109 -0.0896731 -0)
(-134.159 -0.0977392 -0)
(-133.997 -0.0519811 -0)
(-133.999 -0.00966609 -0)
(-134.062 -0.0177322 -0)
(-133.937 -0.075431 -0)
(-133.988 -0.140975 -0)
(-134.16 -0.170795 -0)
(-134.086 -0.155436 -0)
(-133.873 -0.122198 -0)
(-133.841 -0.108718 -0)
(-133.981 -0.133923 -0)
(-134.058 -0.187749 -0)
(-133.987 -0.242318 -0)
(-133.897 -0.272091 -0)
(-133.917 -0.268194 -0)
(-134.023 -0.240009 -0)
(-134.091 -0.206362 -0)
(-134.048 -0.183539 -0)
(-133.94 -0.177231 -0)
(-133.876 -0.181555 -0)
(-133.934 -0.183728 -0)
(-134.108 -0.170892 -0)
(-134.316 -0.135842 -0)
(-134.46 -0.0796656 -0)
(-134.485 -0.0107632 -0)
(-134.402 0.0586519 -0)
(-134.271 0.116642 -0)
(-134.172 0.154577 -0)
(-134.158 0.168437 -0)
(-134.244 0.158576 -0)
(-134.396 0.128512 -0)
(-134.557 0.0835152 -0)
(-134.678 0.0295673 -0)
(-134.154 0.0335777 -0)
(-134.096 0.0125115 -0)
(-134.043 -0.00104742 -0)
(-134.058 -0.0266277 -0)
(-134.104 -0.057254 -0)
(-134.114 -0.0762793 -0)
(-134.105 -0.0700351 -0)
(-134.121 -0.0391197 -0)
(-133.966 -0.0124586 -0)
(-134.011 -0.0205465 -0)
(-134.113 -0.0646571 -0)
(-133.993 -0.116588 -0)
(-134.015 -0.144739 -0)
(-134.149 -0.139145 -0)
(-134.06 -0.116353 -0)
(-133.863 -0.104237 -0)
(-133.863 -0.121103 -0)
(-134.029 -0.164608 -0)
(-134.109 -0.215928 -0)
(-134.02 -0.25337 -0)
(-133.901 -0.265073 -0)
(-133.899 -0.253576 -0)
(-133.997 -0.231804 -0)
(-134.072 -0.214511 -0)
(-134.043 -0.21017 -0)
(-133.944 -0.217264 -0)
(-133.879 -0.226122 -0)
(-133.925 -0.224297 -0)
(-134.078 -0.202245 -0)
(-134.264 -0.156981 -0)
(-134.393 -0.0928152 -0)
(-134.414 -0.0194684 -0)
(-134.337 0.0512652 -0)
(-134.223 0.108816 -0)
(-134.146 0.146012 -0)
(-134.156 0.159802 -0)
(-134.263 0.150838 -0)
(-134.433 0.122452 -0)
(-134.606 0.0796231 -0)
(-134.734 0.0282083 -0)
(-134.141 0.00532112 -0)
(-134.105 0.0300005 -0)
(-134.096 -0.00944606 -0)
(-134.105 -0.0532017 -0)
(-134.122 -0.0726692 -0)
(-134.097 -0.0595729 -0)
(-134.072 -0.0308449 -0)
(-134.101 -0.0122666 -0)
(-133.978 -0.0214782 -0)
(-134.051 -0.0563647 -0)
(-134.158 -0.0972536 -0)
(-134.017 -0.121746 -0)
(-134.011 -0.121125 -0)
(-134.132 -0.105538 -0)
(-134.051 -0.0952389 -0)
(-133.878 -0.106102 -0)
(-133.901 -0.139964 -0)
(-134.076 -0.18497 -0)
(-134.147 -0.223885 -0)
(-134.036 -0.244262 -0)
(-133.897 -0.244432 -0)
(-133.884 -0.232619 -0)
(-133.984 -0.221111 -0)
(-134.069 -0.219477 -0)
(-134.051 -0.229894 -0)
(-133.956 -0.246354 -0)
(-133.883 -0.25781 -0)
(-133.91 -0.253251 -0)
(-134.041 -0.226083 -0)
(-134.206 -0.176208 -0)
(-134.323 -0.109625 -0)
(-134.341 -0.036226 -0)
(-134.273 0.0331182 -0)
(-134.176 0.089145 -0)
(-134.121 0.125763 -0)
(-134.153 0.140487 -0)
(-134.281 0.134013 -0)
(-134.467 0.109411 -0)
(-134.651 0.0713216 -0)
(-134.785 0.0252961 -0)
(-134.129 -0.037253 -0)
(-134.111 -0.028733 -0)
(-134.127 -0.0420794 -0)
(-134.121 -0.0523515 -0)
(-134.111 -0.0452222 -0)
(-134.072 -0.0265146 -0)
(-134.057 -0.0146859 -0)
(-134.112 -0.0232742 -0)
(-134.01 -0.05081 -0)
(-134.087 -0.082863 -0)
(-134.179 -0.103151 -0)
(-134.017 -0.104781 -0)
(-133.998 -0.0941697 -0)
(-134.124 -0.0859821 -0)
(-134.061 -0.093259 -0)
(-133.908 -0.119519 -0)
(-133.942 -0.157492 -0)
(-134.113 -0.194172 -0)
(-134.169 -0.218196 -0)
(-134.04 -0.225417 -0)
(-133.89 -0.220249 -0)
(-133.876 -0.212392 -0)
(-133.984 -0.211305 -0)
(-134.08 -0.22166 -0)
(-134.069 -0.24136 -0)
(-133.972 -0.262482 -0)
(-133.886 -0.274575 -0)
(-133.893 -0.268733 -0)
(-134.001 -0.240644 -0)
(-134.148 -0.191669 -0)
(-134.253 -0.128058 -0)
(-134.271 -0.0589248 -0)
(-134.212 0.00616997 -0)
(-134.131 0.0592434 -0)
(-134.095 0.0950643 -0)
(-134.148 0.111444 -0)
(-134.294 0.108901 -0)
(-134.496 0.0900788 -0)
(-134.69 0.0591182 -0)
(-134.83 0.021035 -0)
(-134.13 -0.052482 -0)
(-134.11 -0.0544328 -0)
(-134.12 -0.0439561 -0)
(-134.108 -0.0303912 -0)
(-134.096 -0.0182774 -0)
(-134.066 -0.0146173 -0)
(-134.068 -0.0249535 -0)
(-134.137 -0.0471594 -0)
(-134.038 -0.0715743 -0)
(-134.103 -0.0872633 -0)
(-134.18 -0.0893585 -0)
(-134.008 -0.0821747 -0)
(-133.992 -0.0762817 -0)
(-134.131 -0.0819307 -0)
(-134.085 -0.103077 -0)
(-133.942 -0.135335 -0)
(-133.976 -0.168806 -0)
(-134.137 -0.193735 -0)
(-134.178 -0.205281 -0)
(-134.038 -0.205145 -0)
(-133.884 -0.200147 -0)
(-133.875 -0.198533 -0)
(-133.993 -0.205951 -0)
(-134.099 -0.223172 -0)
(-134.092 -0.245969 -0)
(-133.989 -0.266715 -0)
(-133.889 -0.277062 -0)
(-133.877 -0.270648 -0)
(-133.964 -0.24487 -0)
(-134.094 -0.201389 -0)
(-134.19 -0.145503 -0)
(-134.207 -0.0846967 -0)
(-134.155 -0.0268145 -0)
(-134.087 0.0215233 -0)
(-134.068 0.0558652 -0)
(-134.14 0.0741759 -0)
(-134.302 0.0766303 -0)
(-134.517 0.0652591 -0)
(-134.72 0.0435035 -0)
(-134.866 0.0156227 -0)
(-134.131 -0.0398335 -0)
(-134.102 -0.0370392 -0)
(-134.102 -0.0237131 -0)
(-134.095 -0.0130497 -0)
(-134.095 -0.0124864 -0)
(-134.079 -0.0234746 -0)
(-134.09 -0.0419451 -0)
(-134.158 -0.0603345 -0)
(-134.05 -0.0714587 -0)
(-134.104 -0.0726203 -0)
(-134.174 -0.0673297 -0)
(-134.004 -0.0634056 -0)
(-133.998 -0.0685929 -0)
(-134.15 -0.0863727 -0)
(-134.114 -0.114233 -0)
(-133.973 -0.144937 -0)
(-134 -0.170123 -0)
(-134.149 -0.184639 -0)
(-134.18 -0.188829 -0)
(-134.035 -0.187553 -0)
(-133.883 -0.187367 -0)
(-133.882 -0.193367 -0)
(-134.008 -0.207123 -0)
(-134.12 -0.226554 -0)
(-134.113 -0.247013 -0)
(-134.003 -0.262777 -0)
(-133.89 -0.268632 -0)
(-133.861 -0.261125 -0)
(-133.932 -0.239158 -0)
(-134.048 -0.204082 -0)
(-134.137 -0.159459 -0)
(-134.153 -0.11042 -0)
(-134.106 -0.0626019 -0)
(-134.048 -0.0210177 -0)
(-134.042 0.0107265 -0)
(-134.127 0.0307149 -0)
(-134.303 0.0386934 -0)
(-134.529 0.0359332 -0)
(-134.739 0.024991 -0)
(-134.889 0.00921645 -0)
(-134.128 -0.0172028 -0)
(-134.094 -0.0122637 -0)
(-134.096 -0.0087219 -0)
(-134.097 -0.0108781 -0)
(-134.106 -0.0203665 -0)
(-134.095 -0.0342529 -0)
(-134.105 -0.0469626 -0)
(-134.167 -0.0537059 -0)
(-134.05 -0.0532055 -0)
(-134.099 -0.0485298 -0)
(-134.171 -0.0456694 -0)
(-134.01 -0.0505219 -0)
(-134.015 -0.0658306 -0)
(-134.176 -0.0898175 -0)
(-134.143 -0.117257 -0)
(-133.998 -0.141868 -0)
(-134.016 -0.158778 -0)
(-134.156 -0.166827 -0)
(-134.181 -0.169318 -0)
(-134.036 -0.171998 -0)
(-133.89 -0.179831 -0)
(-133.895 -0.194404 -0)
(-134.026 -0.213461 -0)
(-134.139 -0.232666 -0)
(-134.128 -0.247714 -0)
(-134.011 -0.255502 -0)
(-133.888 -0.254464 -0)
(-133.847 -0.244379 -0)
(-133.906 -0.22586 -0)
(-134.014 -0.19999 -0)
(-134.096 -0.168393 -0)
(-134.11 -0.133428 -0)
(-134.066 -0.0980308 -0)
(-134.014 -0.0652046 -0)
(-134.017 -0.0374741 -0)
(-134.112 -0.0165392 -0)
(-134.297 -0.00308233 -0)
(-134.531 0.00333505 -0)
(-134.747 0.00424309 -0)
(-134.9 0.00198666 -0)
(-134.126 -0.00249676 -0)
(-134.094 -0.00204559 -0)
(-134.101 -0.00711119 -0)
(-134.107 -0.0155896 -0)
(-134.118 -0.0250483 -0)
(-134.105 -0.0322252 -0)
(-134.109 -0.0345979 -0)
(-134.165 -0.032038 -0)
(-134.045 -0.0272634 -0)
(-134.097 -0.0247784 -0)
(-134.176 -0.0288864 -0)
(-134.024 -0.0417057 -0)
(-134.037 -0.0619951 -0)
(-134.202 -0.0855346 -0)
(-134.166 -0.107368 -0)
(-134.015 -0.124172 -0)
(-134.025 -0.134878 -0)
(-134.16 -0.140822 -0)
(-134.185 -0.145895 -0)
(-134.045 -0.155081 -0)
(-133.905 -0.171695 -0)
(-133.915 -0.194831 -0)
(-134.047 -0.219338 -0)
(-134.155 -0.238802 -0)
(-134.136 -0.248862 -0)
(-134.01 -0.248564 -0)
(-133.879 -0.239784 -0)
(-133.833 -0.22568 -0)
(-133.887 -0.209024 -0)
(-133.991 -0.191214 -0)
(-134.07 -0.172376 -0)
(-134.082 -0.152173 -0)
(-134.037 -0.130569 -0)
(-133.987 -0.108126 -0)
(-133.993 -0.08589 -0)
(-134.093 -0.0650822 -0)
(-134.283 -0.046692 -0)
(-134.522 -0.0311008 -0)
(-134.741 -0.017885 -0)
(-134.896 -0.00580757 -0)
(-134.126 0.000658378 -0)
(-134.099 -0.00297714 -0)
(-134.109 -0.00904423 -0)
(-134.115 -0.0146321 -0)
(-134.123 -0.0174328 -0)
(-134.105 -0.0163465 -0)
(-134.105 -0.0120804 -0)
(-134.159 -0.00711633 -0)
(-134.043 -0.0048788 -0)
(-134.101 -0.0083343 -0)
(-134.188 -0.0187216 -0)
(-134.043 -0.0350819 -0)
(-134.059 -0.0544747 -0)
(-134.222 -0.0727309 -0)
(-134.182 -0.0865965 -0)
(-134.025 -0.0959622 -0)
(-134.032 -0.102982 -0)
(-134.167 -0.110027 -0)
(-134.195 -0.119589 -0)
(-134.062 -0.134657 -0)
(-133.929 -0.15752 -0)
(-133.942 -0.186859 -0)
(-134.07 -0.216569 -0)
(-134.169 -0.23859 -0)
(-134.138 -0.247364 -0)
(-134.002 -0.242386 -0)
(-133.865 -0.227726 -0)
(-133.816 -0.209539 -0)
(-133.872 -0.193152 -0)
(-133.977 -0.181136 -0)
(-134.057 -0.173051 -0)
(-134.068 -0.166512 -0)
(-134.022 -0.158685 -0)
(-133.969 -0.147454 -0)
(-133.974 -0.131953 -0)
(-134.072 -0.112505 -0)
(-134.263 -0.0901233 -0)
(-134.502 -0.0658784 -0)
(-134.721 -0.0404454 -0)
(-134.876 -0.0138266 -0)
(-134.128 0.000434083 -0)
(-134.103 -0.00254883 -0)
(-134.113 -0.0043084 -0)
(-134.115 -0.00381825 -0)
(-134.12 -0.000707368 -0)
(-134.1 0.00408134 -0)
(-134.1 0.00848785 -0)
(-134.157 0.010022 -0)
(-134.046 0.00668224 -0)
(-134.111 -0.00213969 -0)
(-134.202 -0.0152432 -0)
(-134.06 -0.0302752 -0)
(-134.075 -0.044737 -0)
(-134.234 -0.0560423 -0)
(-134.19 -0.0625404 -0)
(-134.031 -0.0661993 -0)
(-134.039 -0.0715207 -0)
(-134.177 -0.0812277 -0)
(-134.21 -0.0952153 -0)
(-134.083 -0.113299 -0)
(-133.958 -0.137043 -0)
(-133.974 -0.166966 -0)
(-134.098 -0.19893 -0)
(-134.185 -0.224821 -0)
(-134.14 -0.237159 -0)
(-133.991 -0.233554 -0)
(-133.846 -0.217883 -0)
(-133.798 -0.197945 -0)
(-133.859 -0.18151 -0)
(-133.971 -0.1731 -0)
(-134.055 -0.172869 -0)
(-134.068 -0.177467 -0)
(-134.018 -0.181939 -0)
(-133.961 -0.181641 -0)
(-133.958 -0.173534 -0)
(-134.051 -0.156588 -0)
(-134.237 -0.131416 -0)
(-134.472 -0.0995 -0)
(-134.689 -0.0624897 -0)
(-134.841 -0.0217175 -0)
(-134.129 0.0048538 -0)
(-134.104 0.00532395 -0)
(-134.111 0.00771985 -0)
(-134.111 0.0114765 -0)
(-134.115 0.0156018 -0)
(-134.096 0.0185225 -0)
(-134.099 0.0185937 -0)
(-134.161 0.0146994 -0)
(-134.055 0.00666419 -0)
(-134.123 -0.0044957 -0)
(-134.216 -0.016536 -0)
(-134.072 -0.0271017 -0)
(-134.085 -0.0354172 -0)
(-134.239 -0.041239 -0)
(-134.192 -0.0435051 -0)
(-134.034 -0.0440701 -0)
(-134.048 -0.0488145 -0)
(-134.19 -0.0614053 -0)
(-134.227 -0.079257 -0)
(-134.104 -0.0977766 -0)
(-133.983 -0.116784 -0)
(-134.004 -0.139673 -0)
(-134.128 -0.167294 -0)
(-134.207 -0.194531 -0)
(-134.147 -0.212965 -0)
(-133.983 -0.216743 -0)
(-133.829 -0.206662 -0)
(-133.78 -0.189694 -0)
(-133.847 -0.174944 -0)
(-133.969 -0.169121 -0)
(-134.062 -0.174018 -0)
(-134.078 -0.186585 -0)
(-134.026 -0.200788 -0)
(-133.961 -0.21003 -0)
(-133.949 -0.209155 -0)
(-134.03 -0.195472 -0)
(-134.206 -0.168743 -0)
(-134.433 -0.130476 -0)
(-134.644 -0.083064 -0)
(-134.792 -0.0291408 -0)
(-134.127 0.0147949 -0)
(-134.1 0.0176067 -0)
(-134.107 0.0207659 -0)
(-134.107 0.0233985 -0)
(-134.113 0.0244051 -0)
(-134.097 0.0227719 -0)
(-134.104 0.017997 -0)
(-134.169 0.0103747 -0)
(-134.065 0.000849308 -0)
(-134.134 -0.00926575 -0)
(-134.225 -0.0179745 -0)
(-134.079 -0.0233272 -0)
(-134.089 -0.026383 -0)
(-134.242 -0.0298864 -0)
(-134.192 -0.032593 -0)
(-134.036 -0.0333118 -0)
(-134.057 -0.0377098 -0)
(-134.207 -0.0521568 -0)
(-134.246 -0.0738064 -0)
(-134.121 -0.0931302 -0)
(-133.999 -0.10556 -0)
(-134.025 -0.115792 -0)
(-134.153 -0.131099 -0)
(-134.231 -0.152926 -0)
(-134.162 -0.175026 -0)
(-133.984 -0.188701 -0)
(-133.819 -0.189741 -0)
(-133.766 -0.181374 -0)
(-133.838 -0.171832 -0)
(-133.97 -0.169252 -0)
(-134.073 -0.177563 -0)
(-134.095 -0.19516 -0)
(-134.042 -0.216117 -0)
(-133.969 -0.232743 -0)
(-133.944 -0.238147 -0)
(-134.011 -0.227922 -0)
(-134.172 -0.20065 -0)
(-134.386 -0.157476 -0)
(-134.587 -0.101246 -0)
(-134.729 -0.0357617 -0)
(-134.125 0.0260952 -0)
(-134.098 0.0284395 -0)
(-134.105 0.0294645 -0)
(-134.107 0.0287902 -0)
(-134.116 0.0259513 -0)
(-134.102 0.0208255 -0)
(-134.112 0.0138244 -0)
(-134.178 0.00598957 -0)
(-134.074 -0.00149362 -0)
(-134.142 -0.00817963 -0)
(-134.23 -0.013341 -0)
(-134.081 -0.0148177 -0)
(-134.091 -0.0140337 -0)
(-134.246 -0.0176203 -0)
(-134.195 -0.0252763 -0)
(-134.039 -0.0299346 -0)
(-134.066 -0.0336415 -0)
(-134.226 -0.0469772 -0)
(-134.268 -0.0715678 -0)
(-134.136 -0.0950027 -0)
(-134.006 -0.105393 -0)
(-134.03 -0.10413 -0)
(-134.165 -0.102966 -0)
(-134.251 -0.111911 -0)
(-134.182 -0.130959 -0)
(-133.997 -0.151725 -0)
(-133.822 -0.165445 -0)
(-133.762 -0.169697 -0)
(-133.835 -0.169227 -0)
(-133.974 -0.17182 -0)
(-134.087 -0.183134 -0)
(-134.116 -0.203646 -0)
(-134.063 -0.228616 -0)
(-133.983 -0.250231 -0)
(-133.944 -0.260469 -0)
(-133.993 -0.253389 -0)
(-134.136 -0.226258 -0)
(-134.333 -0.179552 -0)
(-134.522 -0.116296 -0)
(-134.655 -0.0412848 -0)
(-134.124 0.0352571 -0)
(-134.097 0.035446 -0)
(-134.106 0.0339346 -0)
(-134.111 0.0308445 -0)
(-134.121 0.026346 -0)
(-134.109 0.0208609 -0)
(-134.119 0.0150195 -0)
(-134.185 0.00989106 -0)
(-134.079 0.00661255 -0)
(-134.146 0.00432949 -0)
(-134.232 0.00128915 -0)
(-134.079 0.000554287 -0)
(-134.092 0.00401124 -0)
(-134.253 0.00104817 -0)
(-134.205 -0.0134277 -0)
(-134.045 -0.0260489 -0)
(-134.074 -0.0294546 -0)
(-134.245 -0.0366582 -0)
(-134.294 -0.0593742 -0)
(-134.155 -0.0886906 -0)
(-134.009 -0.105466 -0)
(-134.022 -0.102041 -0)
(-134.161 -0.0887405 -0)
(-134.259 -0.0824081 -0)
(-134.202 -0.0918981 -0)
(-134.019 -0.113427 -0)
(-133.837 -0.136676 -0)
(-133.77 -0.153924 -0)
(-133.84 -0.164765 -0)
(-133.984 -0.174532 -0)
(-134.105 -0.189331 -0)
(-134.14 -0.2116 -0)
(-134.088 -0.238443 -0)
(-134.001 -0.262824 -0)
(-133.947 -0.276295 -0)
(-133.977 -0.271746 -0)
(-134.098 -0.245163 -0)
(-134.276 -0.196181 -0)
(-134.449 -0.127766 -0)
(-134.572 -0.0455135 -0)
(-134.124 0.0423931 -0)
(-134.099 0.0408118 -0)
(-134.109 0.0383244 -0)
(-134.115 0.0351505 -0)
(-134.126 0.0317191 -0)
(-134.114 0.0285085 -0)
(-134.123 0.0256781 -0)
(-134.187 0.0236999 -0)
(-134.08 0.0242094 -0)
(-134.147 0.0261362 -0)
(-134.234 0.023536 -0)
(-134.078 0.0188032 -0)
(-134.091 0.0226794 -0)
(-134.263 0.024388 -0)
(-134.222 0.00651087 -0)
(-134.055 -0.0168617 -0)
(-134.077 -0.0232743 -0)
(-134.256 -0.020352 -0)
(-134.32 -0.031606 -0)
(-134.182 -0.0609503 -0)
(-134.019 -0.0883271 -0)
(-134.013 -0.0946587 -0)
(-134.146 -0.0812999 -0)
(-134.254 -0.0658425 -0)
(-134.214 -0.064824 -0)
(-134.042 -0.0819528 -0)
(-133.862 -0.109351 -0)
(-133.79 -0.136537 -0)
(-133.856 -0.158192 -0)
(-133.999 -0.175899 -0)
(-134.125 -0.194702 -0)
(-134.165 -0.218198 -0)
(-134.115 -0.245418 -0)
(-134.021 -0.270701 -0)
(-133.953 -0.285859 -0)
(-133.962 -0.283084 -0)
(-134.06 -0.257265 -0)
(-134.216 -0.207149 -0)
(-134.371 -0.135454 -0)
(-134.482 -0.0483596 -0)
(-134.125 0.0497536 -0)
(-134.101 0.0478632 -0)
(-134.112 0.0460377 -0)
(-134.117 0.0442537 -0)
(-134.128 0.0428717 -0)
(-134.115 0.0423337 -0)
(-134.123 0.0420678 -0)
(-134.186 0.0410193 -0)
(-134.077 0.0418637 -0)
(-134.146 0.0468936 -0)
(-134.239 0.0452742 -0)
(-134.08 0.0319752 -0)
(-134.086 0.0303523 -0)
(-134.269 0.040458 -0)
(-134.246 0.0286245 -0)
(-134.075 -0.00357161 -0)
(-134.077 -0.0195174 -0)
(-134.253 -0.00944774 -0)
(-134.335 -0.00112255 -0)
(-134.211 -0.0170663 -0)
(-134.042 -0.0477211 -0)
(-134.015 -0.0679165 -0)
(-134.132 -0.0661652 -0)
(-134.243 -0.0530781 -0)
(-134.218 -0.0475453 -0)
(-134.063 -0.0601202 -0)
(-133.892 -0.0879783 -0)
(-133.819 -0.121071 -0)
(-133.88 -0.151028 -0)
(-134.02 -0.175794 -0)
(-134.147 -0.19844 -0)
(-134.191 -0.222772 -0)
(-134.141 -0.249343 -0)
(-134.041 -0.27407 -0)
(-133.959 -0.289535 -0)
(-133.948 -0.287729 -0)
(-134.022 -0.262742 -0)
(-134.154 -0.212497 -0)
(-134.29 -0.13935 -0)
(-134.388 -0.0498158 -0)
(-134.127 0.0585199 -0)
(-134.103 0.0572916 -0)
(-134.113 0.0564247 -0)
(-134.118 0.0555998 -0)
(-134.128 0.0549219 -0)
(-134.114 0.0552711 -0)
(-134.124 0.05616 -0)
(-134.187 0.0535741 -0)
(-134.074 0.0493157 -0)
(-134.144 0.0546825 -0)
(-134.248 0.0588719 -0)
(-134.093 0.037675 -0)
(-134.082 0.0212644 -0)
(-134.265 0.0366705 -0)
(-134.266 0.0420273 -0)
(-134.104 0.0112838 -0)
(-134.083 -0.0185772 -0)
(-134.238 -0.0134707 -0)
(-134.328 0.010583 -0)
(-134.228 0.0180114 -0)
(-134.07 -0.000610619 -0)
(-134.032 -0.0255717 -0)
(-134.131 -0.0367861 -0)
(-134.235 -0.034 -0)
(-134.221 -0.0320112 -0)
(-134.083 -0.0441903 -0)
(-133.923 -0.0724261 -0)
(-133.853 -0.109002 -0)
(-133.91 -0.144615 -0)
(-134.046 -0.174685 -0)
(-134.172 -0.200297 -0)
(-134.216 -0.224886 -0)
(-134.166 -0.250029 -0)
(-134.061 -0.273117 -0)
(-133.966 -0.287774 -0)
(-133.935 -0.286202 -0)
(-133.985 -0.262033 -0)
(-134.093 -0.212523 -0)
(-134.208 -0.13962 -0)
(-134.292 -0.0499404 -0)
(-134.129 0.067435 -0)
(-134.103 0.0666492 -0)
(-134.114 0.0658657 -0)
(-134.119 0.0647334 -0)
(-134.128 0.0627009 -0)
(-134.114 0.0613784 -0)
(-134.125 0.0629705 -0)
(-134.193 0.0602961 -0)
(-134.076 0.0470563 -0)
(-134.137 0.0462439 -0)
(-134.256 0.0628157 -0)
(-134.118 0.0452292 -0)
(-134.087 0.00883508 -0)
(-134.249 0.0163743 -0)
(-134.271 0.0416602 -0)
(-134.135 0.028671 -0)
(-134.102 -0.00823653 -0)
(-134.224 -0.0200738 -0)
(-134.304 0.00186268 -0)
(-134.223 0.0257337 -0)
(-134.086 0.0268467 -0)
(-134.051 0.0107486 -0)
(-134.141 -0.0038926 -0)
(-134.238 -0.0094429 -0)
(-134.228 -0.0139522 -0)
(-134.104 -0.0293137 -0)
(-133.957 -0.059576 -0)
(-133.891 -0.0991511 -0)
(-133.945 -0.138864 -0)
(-134.076 -0.172691 -0)
(-134.197 -0.200191 -0)
(-134.241 -0.224314 -0)
(-134.189 -0.247346 -0)
(-134.079 -0.267984 -0)
(-133.972 -0.280992 -0)
(-133.922 -0.279078 -0)
(-133.948 -0.255725 -0)
(-134.032 -0.207711 -0)
(-134.128 -0.136579 -0)
(-134.198 -0.048848 -0)
(-134.13 0.0745703 -0)
(-134.104 0.0734362 -0)
(-134.115 0.0720098 -0)
(-134.121 0.0705816 -0)
(-134.131 0.0671542 -0)
(-134.114 0.0622233 -0)
(-134.125 0.0642143 -0)
(-134.203 0.0685318 -0)
(-134.088 0.0498055 -0)
(-134.128 0.0320334 -0)
(-134.25 0.0592715 -0)
(-134.147 0.0643929 -0)
(-134.111 0.018539 -0)
(-134.232 0.00324291 -0)
(-134.254 0.0340401 -0)
(-134.153 0.0477953 -0)
(-134.132 0.0229453 -0)
(-134.228 -0.0017032 -0)
(-134.282 0.0021857 -0)
(-134.203 0.0213065 -0)
(-134.085 0.0309524 -0)
(-134.062 0.0256008 -0)
(-134.151 0.0159115 -0)
(-134.246 0.00950753 -0)
(-134.24 0.00214938 -0)
(-134.128 -0.0155881 -0)
(-133.993 -0.0478574 -0)
(-133.932 -0.0899992 -0)
(-133.984 -0.132874 -0)
(-134.108 -0.169411 -0)
(-134.223 -0.19795 -0)
(-134.263 -0.220976 -0)
(-134.21 -0.24133 -0)
(-134.095 -0.258898 -0)
(-133.977 -0.269636 -0)
(-133.91 -0.266962 -0)
(-133.913 -0.24447 -0)
(-133.974 -0.198641 -0)
(-134.05 -0.130633 -0)
(-134.107 -0.0466922 -0)
(-134.131 0.0802221 -0)
(-134.106 0.0785636 -0)
(-134.116 0.0766523 -0)
(-134.124 0.0766084 -0)
(-134.136 0.0752369 -0)
(-134.117 0.0663779 -0)
(-134.119 0.063875 -0)
(-134.207 0.0814777 -0)
(-134.112 0.0722029 -0)
(-134.127 0.0300314 -0)
(-134.224 0.0483894 -0)
(-134.159 0.0835291 -0)
(-134.149 0.0553273 -0)
(-134.233 0.019837 -0)
(-134.227 0.0319689 -0)
(-134.146 0.0584679 -0)
(-134.152 0.0591253 -0)
(-134.245 0.0435653 -0)
(-134.281 0.0360665 -0)
(-134.194 0.0382287 -0)
(-134.082 0.0376789 -0)
(-134.067 0.0301174 -0)
(-134.157 0.0216915 -0)
(-134.252 0.0167073 -0)
(-134.253 0.0103526 -0)
(-134.154 -0.00657587 -0)
(-134.031 -0.0385894 -0)
(-133.976 -0.0815688 -0)
(-134.025 -0.126199 -0)
(-134.141 -0.164384 -0)
(-134.249 -0.193266 -0)
(-134.284 -0.214758 -0)
(-134.227 -0.232075 -0)
(-134.107 -0.246177 -0)
(-133.981 -0.25423 -0)
(-133.897 -0.250525 -0)
(-133.88 -0.228982 -0)
(-133.918 -0.185954 -0)
(-133.976 -0.122235 -0)
(-134.021 -0.0436459 -0)
(-134.131 0.087305 -0)
(-134.108 0.0860624 -0)
(-134.117 0.0837597 -0)
(-134.123 0.0850973 -0)
(-134.141 0.0904519 -0)
(-134.125 0.0812989 -0)
(-134.11 0.062729 -0)
(-134.194 0.0852408 -0)
(-134.14 0.105256 -0)
(-134.152 0.0511599 -0)
(-134.196 0.0350487 -0)
(-134.14 0.0743251 -0)
(-134.175 0.0827733 -0)
(-134.255 0.0572903 -0)
(-134.216 0.0453977 -0)
(-134.126 0.0547981 -0)
(-134.147 0.0663217 -0)
(-134.251 0.0733972 -0)
(-134.288 0.0782477 -0)
(-134.202 0.0769402 -0)
(-134.093 0.0644081 -0)
(-134.078 0.0447088 -0)
(-134.164 0.0279859 -0)
(-134.257 0.0190861 -0)
(-134.264 0.0123187 -0)
(-134.177 -0.00296008 -0)
(-134.068 -0.0329162 -0)
(-134.02 -0.0746858 -0)
(-134.067 -0.119212 -0)
(-134.175 -0.157652 -0)
(-134.274 -0.186038 -0)
(-134.302 -0.20559 -0)
(-134.241 -0.219674 -0)
(-134.117 -0.230139 -0)
(-133.982 -0.235321 -0)
(-133.884 -0.230477 -0)
(-133.849 -0.210028 -0)
(-133.867 -0.170338 -0)
(-133.907 -0.111868 -0)
(-133.941 -0.0398909 -0)
(-134.131 0.0976385 -0)
(-134.109 0.0981036 -0)
(-134.117 0.0946295 -0)
(-134.117 0.0912955 -0)
(-134.14 0.102584 -0)
(-134.144 0.104316 -0)
(-134.115 0.0636227 -0)
(-134.165 0.0624874 -0)
(-134.146 0.113766 -0)
(-134.198 0.0849854 -0)
(-134.2 0.0426028 -0)
(-134.111 0.0418141 -0)
(-134.166 0.0635741 -0)
(-134.27 0.0778232 -0)
(-134.229 0.0740561 -0)
(-134.125 0.0589356 -0)
(-134.133 0.0500012 -0)
(-134.233 0.0601988 -0)
(-134.277 0.0827193 -0)
(-134.208 0.096828 -0)
(-134.114 0.089088 -0)
(-134.103 0.0649116 -0)
(-134.182 0.0399731 -0)
(-134.267 0.0240528 -0)
(-134.275 0.0138328 -0)
(-134.199 -0.00145012 -0)
(-134.103 -0.029512 -0)
(-134.062 -0.0691625 -0)
(-134.108 -0.112192 -0)
(-134.208 -0.14956 -0)
(-134.297 -0.176522 -0)
(-134.318 -0.193662 -0)
(-134.252 -0.204359 -0)
(-134.123 -0.21116 -0)
(-133.981 -0.213469 -0)
(-133.872 -0.207535 -0)
(-133.82 -0.188379 -0)
(-133.82 -0.152489 -0)
(-133.845 -0.100022 -0)
(-133.869 -0.0356106 -0)
(-134.133 0.107609 -0)
(-134.111 0.1098 -0)
(-134.124 0.106326 -0)
(-134.115 0.0892911 -0)
(-134.128 0.093141 -0)
(-134.164 0.12039 -0)
(-134.152 0.0799875 -0)
(-134.144 0.0320142 -0)
(-134.117 0.0777457 -0)
(-134.223 0.097979 -0)
(-134.239 0.0901371 -0)
(-134.119 0.0487803 -0)
(-134.139 0.0301699 -0)
(-134.245 0.0635075 -0)
(-134.234 0.100049 -0)
(-134.15 0.0945614 -0)
(-134.145 0.0637345 -0)
(-134.218 0.0495322 -0)
(-134.251 0.0641338 -0)
(-134.196 0.0851979 -0)
(-134.125 0.088339 -0)
(-134.127 0.0707259 -0)
(-134.205 0.0464383 -0)
(-134.283 0.0280313 -0)
(-134.289 0.0155621 -0)
(-134.22 -1.59039e-05 -0)
(-134.136 -0.0265722 -0)
(-134.103 -0.0639605 -0)
(-134.147 -0.104818 -0)
(-134.239 -0.140233 -0)
(-134.318 -0.165029 -0)
(-134.33 -0.179337 -0)
(-134.259 -0.186529 -0)
(-134.126 -0.189729 -0)
(-133.978 -0.189293 -0)
(-133.859 -0.182427 -0)
(-133.794 -0.164804 -0)
(-133.778 -0.133098 -0)
(-133.79 -0.0871776 -0)
(-133.806 -0.0309842 -0)
(-134.136 0.110158 -0)
(-134.111 0.110874 -0)
(-134.138 0.115029 -0)
(-134.13 0.0881877 -0)
(-134.109 0.0621406 -0)
(-134.158 0.110516 -0)
(-134.203 0.11745 -0)
(-134.167 0.0509775 -0)
(-134.081 0.0412482 -0)
(-134.185 0.0642644 -0)
(-134.25 0.13311 -0)
(-134.171 0.121175 -0)
(-134.151 0.0556767 -0)
(-134.201 0.0492086 -0)
(-134.198 0.0981683 -0)
(-134.162 0.126223 -0)
(-134.178 0.109153 -0)
(-134.233 0.0822919 -0)
(-134.241 0.0752216 -0)
(-134.184 0.0815842 -0)
(-134.128 0.0806576 -0)
(-134.145 0.0649991 -0)
(-134.225 0.0434576 -0)
(-134.298 0.0265313 -0)
(-134.303 0.0148538 -0)
(-134.241 0.000526366 -0)
(-134.167 -0.0239042 -0)
(-134.141 -0.058643 -0)
(-134.184 -0.0968277 -0)
(-134.268 -0.129692 -0)
(-134.336 -0.151809 -0)
(-134.339 -0.163004 -0)
(-134.262 -0.166665 -0)
(-134.126 -0.166418 -0)
(-133.974 -0.163464 -0)
(-133.847 -0.155906 -0)
(-133.771 -0.140067 -0)
(-133.742 -0.112833 -0)
(-133.743 -0.0737981 -0)
(-133.751 -0.0261824 -0)
(-134.139 0.105266 -0)
(-134.106 0.0969544 -0)
(-134.146 0.116811 -0)
(-134.168 0.110918 -0)
(-134.106 0.0484032 -0)
(-134.109 0.0736266 -0)
(-134.211 0.136711 -0)
(-134.221 0.126928 -0)
(-134.104 0.0732728 -0)
(-134.131 0.0210483 -0)
(-134.182 0.096679 -0)
(-134.196 0.156419 -0)
(-134.211 0.116997 -0)
(-134.202 0.0705808 -0)
(-134.157 0.0780403 -0)
(-134.139 0.104504 -0)
(-134.189 0.111307 -0)
(-134.252 0.103227 -0)
(-134.252 0.0975718 -0)
(-134.19 0.0944138 -0)
(-134.142 0.0834086 -0)
(-134.165 0.0620952 -0)
(-134.244 0.0389548 -0)
(-134.312 0.0225082 -0)
(-134.315 0.0122163 -0)
(-134.259 -3.91999e-05 -0)
(-134.195 -0.0217375 -0)
(-134.176 -0.0533447 -0)
(-134.218 -0.0883562 -0)
(-134.294 -0.118158 -0)
(-134.351 -0.137194 -0)
(-134.345 -0.145096 -0)
(-134.262 -0.145293 -0)
(-134.123 -0.141839 -0)
(-133.968 -0.136679 -0)
(-133.836 -0.128727 -0)
(-133.751 -0.114912 -0)
(-133.712 -0.0923347 -0)
(-133.704 -0.0603214 -0)
(-133.706 -0.0213654 -0)
(-134.143 0.107328 -0)
(-134.099 0.0826898 -0)
(-134.124 0.103657 -0)
(-134.199 0.153652 -0)
(-134.146 0.093633 -0)
(-134.069 0.0492989 -0)
(-134.15 0.0875473 -0)
(-134.23 0.160361 -0)
(-134.186 0.142423 -0)
(-134.162 0.048324 -0)
(-134.114 0.0371789 -0)
(-134.151 0.0918355 -0)
(-134.237 0.116794 -0)
(-134.24 0.104217 -0)
(-134.164 0.0885572 -0)
(-134.128 0.0806349 -0)