/*--------------------------------*- C++ -*----------------------------------*\
  =========                 |
  \\      /  F ield         | OpenFOAM: The Open Source CFD Toolbox
   \\    /   O peration     | Website:  https://openfoam.org
    \\  /    A nd           | Version:  7
     \\/     M anipulation  |
\*---------------------------------------------------------------------------*/
FoamFile
{
    version     2.0;
    format      ascii;
    class       volScalarField;
    location    "0.1/solid";
    object      Tsolid;
}
// * * * * * * * * * * * * * * * * * * * * * * * * * * * * * * * * * * * * * //

dimensions      [0 0 0 1 0 0 0];

internalField   nonuniform List<scalar> 
1600
(
286.754
287.089
287.426
287.76
288.096
288.432
288.767
289.102
289.437
289.772
290.107
290.442
290.777
291.112
291.447
291.782
292.116
292.451
292.786
293.122
293.456
293.79
294.125
294.46
294.796
295.131
295.467
295.801
296.136
296.472
296.808
297.144
297.481
297.818
298.154
298.489
298.825
299.16
299.496
299.832
286.756
287.09
287.426
287.762
288.096
288.432
288.767
289.102
289.438
289.772
290.107
290.442
290.777
291.112
291.447
291.781
292.116
292.451
292.787
293.122
293.456
293.79
294.125
294.46
294.796
295.132
295.467
295.801
296.136
296.472
296.808
297.144
297.481
297.818
298.154
298.489
298.824
299.16
299.496
299.832
286.756
287.091
287.426
287.762
288.096
288.431
288.767
289.102
289.437
289.772
290.107
290.443
290.777
291.112
291.447
291.782
292.117
292.452
292.787
293.121
293.456
293.79
294.125
294.461
294.796
295.132
295.466
295.801
296.136
296.472
296.808
297.145
297.481
297.817
298.153
298.489
298.824
299.16
299.496
299.832
286.756
287.091
287.425
287.761
288.097
288.432
288.767
289.102
289.437
289.772
290.108
290.443
290.777
291.112
291.447
291.782
292.117
292.452
292.787
293.122
293.456
293.791
294.126
294.461
294.797
295.132
295.467
295.801
296.136
296.472
296.808
297.145
297.481
297.817
298.153
298.488
298.824
299.159
299.495
299.832
286.756
287.091
287.426
287.762
288.097
288.432
288.767
289.102
289.438
289.772
290.108
290.443
290.777
291.112
291.448
291.783
292.117
292.452
292.787
293.122
293.457
293.791
294.126
294.462
294.797
295.132
295.467
295.801
296.137
296.472
296.808
297.145
297.481
297.817
298.153
298.488
298.823
299.159
299.495
299.832
286.756
287.091
287.426
287.762
288.097
288.432
288.767
289.103
289.438
289.772
290.108
290.443
290.777
291.113
291.448
291.783
292.118
292.452
292.788
293.123
293.457
293.792
294.127
294.462
294.798
295.133
295.467
295.802
296.137
296.472
296.808
297.145
297.481
297.817
298.152
298.488
298.823
299.159
299.495
299.832
286.756
287.091
287.426
287.762
288.097
288.432
288.767
289.103
289.438
289.772
290.108
290.443
290.778
291.113
291.449
291.783
292.118
292.453
292.788
293.123
293.458
293.793
294.128
294.463
294.798
295.133
295.468
295.802
296.137
296.473
296.809
297.145
297.481
297.816
298.152
298.487
298.823
299.158
299.495
299.832
286.756
287.091
287.426
287.762
288.097
288.432
288.767
289.103
289.438
289.773
290.108
290.443
290.778
291.113
291.449
291.784
292.118
292.453
292.789
293.124
293.459
293.793
294.128
294.463
294.799
295.134
295.468
295.803
296.138
296.473
296.809
297.145
297.481
297.816
298.152
298.487
298.822
299.158
299.495
299.831
286.756
287.091
287.426
287.762
288.097
288.432
288.767
289.103
289.438
289.773
290.108
290.444
290.778
291.114
291.449
291.784
292.119
292.454
292.789
293.125
293.459
293.794
294.129
294.464
294.799
295.134
295.469
295.804
296.138
296.474
296.809
297.145
297.481
297.816
298.151
298.486
298.822
299.158
299.494
299.831
286.756
287.091
287.427
287.762
288.097
288.432
288.767
289.103
289.438
289.773
290.109
290.444
290.779
291.114
291.449
291.784
292.119
292.454
292.79
293.125
293.46
293.794
294.129
294.464
294.8
295.135
295.47
295.804
296.139
296.474
296.81
297.145
297.481
297.816
298.151
298.486
298.822
299.158
299.494
299.831
286.756
287.092
287.427
287.762
288.097
288.433
288.768
289.103
289.438
289.773
290.109
290.444
290.779
291.114
291.45
291.785
292.119
292.455
292.79
293.126
293.46
293.795
294.13
294.465
294.8
295.136
295.47
295.805
296.14
296.475
296.81
297.145
297.481
297.816
298.151
298.486
298.822
299.158
299.494
299.831
286.756
287.092
287.427
287.762
288.097
288.433
288.768
289.103
289.438
289.773
290.109
290.444
290.779
291.114
291.45
291.785
292.12
292.455
292.791
293.126
293.461
293.795
294.13
294.466
294.801
295.136
295.471
295.806
296.14
296.475
296.81
297.146
297.481
297.816
298.151
298.486
298.822
299.158
299.494
299.831
286.756
287.092
287.427
287.762
288.097
288.433
288.768
289.103
289.439
289.773
290.109
290.444
290.779
291.115
291.45
291.785
292.12
292.455
292.791
293.126
293.461
293.796
294.131
294.466
294.802
295.137
295.472
295.806
296.141
296.476
296.811
297.146
297.481
297.816
298.151
298.486
298.822
299.158
299.494
299.831
286.756
287.092
287.427
287.762
288.097
288.433
288.768
289.103
289.439
289.773
290.109
290.444
290.779
291.115
291.45
291.786
292.121
292.456
292.791
293.127
293.462
293.796
294.131
294.467
294.802
295.137
295.472
295.807
296.141
296.476
296.811
297.146
297.482
297.817
298.151
298.486
298.822
299.158
299.494
299.831
286.756
287.092
287.427
287.762
288.097
288.433
288.768
289.103
289.439
289.774
290.109
290.445
290.779
291.115
291.451
291.786
292.121
292.456
292.792
293.127
293.462
293.797
294.132
294.467
294.803
295.138
295.473
295.807
296.142
296.477
296.812
297.147
297.482
297.817
298.152
298.487
298.822
299.158
299.494
299.831
286.756
287.092
287.427
287.762
288.097
288.433
288.768
289.103
289.439
289.774
290.109
290.445
290.78
291.115
291.451
291.786
292.121
292.456
292.792
293.127
293.462
293.797
294.132
294.468
294.803
295.139
295.473
295.808
296.142
296.477
296.812
297.147
297.482
297.817
298.152
298.487
298.822
299.158
299.495
299.831
286.756
287.092
287.427
287.762
288.097
288.433
288.768
289.103
289.439
289.774
290.109
290.445
290.78
291.115
291.451
291.786
292.121
292.456
292.792
293.128
293.463
293.798
294.133
294.468
294.804
295.139
295.474
295.808
296.143
296.477
296.813
297.148
297.483
297.818
298.153
298.488
298.823
299.159
299.495
299.832
286.756
287.092
287.427
287.762
288.097
288.433
288.768
289.103
289.439
289.774
290.109
290.445
290.78
291.115
291.451
291.786
292.121
292.456
292.792
293.128
293.463
293.798
294.133
294.469
294.804
295.14
295.474
295.809
296.143
296.478
296.813
297.148
297.484
297.819
298.153
298.488
298.823
299.159
299.495
299.832
286.756
287.091
287.427
287.762
288.097
288.433
288.768
289.103
289.439
289.774
290.109
290.445
290.78
291.115
291.451
291.786
292.121
292.457
292.792
293.128
293.463
293.798
294.133
294.469
294.805
295.14
295.475
295.809
296.144
296.478
296.813
297.149
297.484
297.819
298.154
298.489
298.824
299.159
299.495
299.832
286.756
287.091
287.426
287.762
288.097
288.433
288.768
289.103
289.439
289.774
290.109
290.445
290.78
291.115
291.451
291.786
292.121
292.457
292.793
293.128
293.463
293.798
294.134
294.469
294.805
295.14
295.475
295.809
296.144
296.479
296.814
297.149
297.485
297.82
298.155
298.49
298.825
299.16
299.496
299.832
286.756
287.091
287.426
287.762
288.097
288.432
288.768
289.103
289.438
289.773
290.109
290.445
290.78
291.115
291.451
291.786
292.121
292.457
292.793
293.128
293.464
293.799
294.134
294.469
294.805
295.14
295.475
295.81
296.144
296.479
296.814
297.15
297.485
297.821
298.156
298.49
298.825
299.161
299.496
299.832
286.756
287.091
287.426
287.762
288.097
288.432
288.767
289.103
289.438
289.773
290.109
290.445
290.779
291.115
291.451
291.786
292.121
292.457
292.793
293.128
293.464
293.799
294.134
294.469
294.805
295.14
295.475
295.81
296.145
296.48
296.815
297.15
297.486
297.821
298.156
298.491
298.826
299.161
299.496
299.832
286.756
287.091
287.426
287.762
288.097
288.432
288.767
289.103
289.438
289.773
290.109
290.444
290.779
291.115
291.451
291.786
292.121
292.457
292.793
293.128
293.464
293.799
294.134
294.469
294.805
295.141
295.476
295.81
296.145
296.48
296.815
297.151
297.487
297.822
298.157
298.492
298.827
299.162
299.497
299.832
286.755
287.091
287.426
287.761
288.096
288.432
288.767
289.103
289.438
289.773
290.109
290.444
290.779
291.115
291.451
291.786
292.121
292.457
292.793
293.128
293.464
293.799
294.134
294.469
294.805
295.141
295.476
295.811
296.145
296.48
296.816
297.152
297.487
297.823
298.158
298.493
298.827
299.162
299.497
299.832
286.755
287.091
287.426
287.761
288.096
288.432
288.767
289.102
289.438
289.773
290.109
290.444
290.779
291.115
291.451
291.786
292.121
292.457
292.792
293.128
293.463
293.799
294.134
294.469
294.805
295.141
295.476
295.811
296.146
296.481
296.816
297.152
297.488
297.823
298.158
298.493
298.828
299.163
299.497
299.832
286.755
287.09
287.426
287.761
288.096
288.432
288.767
289.102
289.438
289.773
290.108
290.444
290.779
291.115
291.45
291.786
292.121
292.457
292.792
293.128
293.463
293.798
294.134
294.469
294.805
295.141
295.476
295.811
296.146
296.481
296.817
297.153
297.488
297.824
298.159
298.494
298.828
299.163
299.498
299.833
286.755
287.09
287.425
287.761
288.096
288.431
288.767
289.102
289.437
289.773
290.108
290.444
290.779
291.115
291.45
291.786
292.121
292.456
292.792
293.128
293.463
293.798
294.134
294.469
294.805
295.141
295.476
295.811
296.146
296.482
296.817
297.153
297.489
297.824
298.16
298.494
298.829
299.163
299.498
299.833
286.754
287.09
287.425
287.761
288.096
288.431
288.766
289.102
289.437
289.772
290.108
290.444
290.779
291.114
291.45
291.786
292.121
292.456
292.792
293.128
293.463
293.798
294.134
294.469
294.805
295.141
295.476
295.811
296.147
296.482
296.818
297.154
297.489
297.825
298.16
298.495
298.829
299.164
299.498
299.833
286.754
287.09
287.425
287.76
288.095
288.431
288.766
289.102
289.437
289.772
290.108
290.444
290.779
291.114
291.45
291.785
292.121
292.456
292.792
293.127
293.463
293.798
294.133
294.469
294.805
295.141
295.476
295.811
296.147
296.482
296.818
297.154
297.49
297.825
298.16
298.495
298.83
299.164
299.498
299.833
286.754
287.089
287.424
287.76
288.095
288.431
288.766
289.102
289.437
289.772
290.108
290.443
290.779
291.114
291.45
291.785
292.12
292.456
292.792
293.127
293.463
293.798
294.133
294.469
294.805
295.141
295.476
295.812
296.147
296.483
296.819
297.154
297.49
297.826
298.161
298.496
298.83
299.164
299.499
299.833
286.754
287.089
287.424
287.76
288.095
288.43
288.766
289.101
289.437
289.772
290.107
290.443
290.778
291.114
291.449
291.785
292.12
292.456
292.791
293.127
293.462
293.798
294.133
294.469
294.805
295.141
295.476
295.812
296.147
296.483
296.819
297.155
297.491
297.826
298.161
298.496
298.83
299.165
299.499
299.833
286.753
287.089
287.424
287.759
288.095
288.43
288.765
289.101
289.436
289.772
290.107
290.443
290.778
291.114
291.449
291.785
292.12
292.455
292.791
293.127
293.462
293.798
294.133
294.469
294.805
295.141
295.476
295.812
296.147
296.483
296.819
297.155
297.491
297.826
298.161
298.496
298.83
299.165
299.499
299.833
286.753
287.089
287.424
287.759
288.094
288.43
288.765
289.101
289.436
289.772
290.107
290.442
290.778
291.113
291.449
291.784
292.12
292.455
292.791
293.126
293.462
293.797
294.133
294.469
294.805
295.141
295.476
295.812
296.148
296.483
296.819
297.155
297.491
297.827
298.162
298.496
298.831
299.165
299.499
299.833
286.753
287.088
287.424
287.759
288.094
288.43
288.765
289.1
289.436
289.771
290.107
290.442
290.778
291.113
291.449
291.784
292.119
292.455
292.791
293.126
293.462
293.797
294.133
294.469
294.805
295.141
295.476
295.812
296.148
296.484
296.82
297.156
297.491
297.827
298.162
298.496
298.831
299.165
299.499
299.833
286.752
287.088
287.423
287.759
288.094
288.429
288.765
289.1
289.436
289.771
290.106
290.442
290.777
291.113
291.448
291.784
292.119
292.455
292.791
293.126
293.462
293.797
294.133
294.469
294.805
295.141
295.476
295.812
296.148
296.484
296.82
297.156
297.491
297.827
298.162
298.496
298.831
299.165
299.499
299.833
286.752
287.087
287.423
287.758
288.094
288.429
288.764
289.1
289.435
289.771
290.106
290.442
290.777
291.113
291.448
291.784
292.119
292.455
292.79
293.126
293.462
293.797
294.133
294.469
294.805
295.141
295.476
295.812
296.148
296.484
296.82
297.156
297.491
297.827
298.162
298.496
298.831
299.165
299.499
299.833
286.752
287.087
287.422
287.758
288.094
288.429
288.764
289.1
289.435
289.771
290.106
290.442
290.777
291.113
291.448
291.784
292.119
292.455
292.79
293.126
293.461
293.797
294.133
294.469
294.805
295.141
295.476
295.812
296.148
296.484
296.82
297.156
297.491
297.827
298.162
298.496
298.831
299.165
299.499
299.833
286.751
287.087
287.422
287.758
288.093
288.429
288.764
289.1
289.435
289.77
290.106
290.442
290.777
291.112
291.448
291.783
292.119
292.455
292.79
293.126
293.461
293.797
294.133
294.469
294.805
295.141
295.476
295.812
296.148
296.484
296.82
297.156
297.491
297.827
298.162
298.496
298.831
299.165
299.499
299.833
286.75
287.086
287.422
287.758
288.093
288.429
288.764
289.1
289.435
289.77
290.106
290.441
290.777
291.112
291.448
291.783
292.119
292.455
292.79
293.126
293.461
293.797
294.133
294.469
294.805
295.141
295.476
295.812
296.148
296.484
296.82
297.156
297.491
297.827
298.162
298.496
298.831
299.165
299.499
299.833
286.751
287.086
287.422
287.758
288.093
288.428
288.764
289.1
289.435
289.77
290.106
290.441
290.777
291.112
291.448
291.783
292.119
292.455
292.79
293.126
293.461
293.797
294.133
294.469
294.805
295.141
295.476
295.812
296.148
296.484
296.82
297.156
297.491
297.826
298.161
298.496
298.83
299.165
299.499
299.833
)
;

boundaryField
{
    topWall
    {
        type            zeroGradient;
    }
    rightWall
    {
        type            fixedValue;
        value           uniform 300;
    }
    bottomWall
    {
        type            zeroGradient;
    }
    frontAndBack
    {
        type            empty;
    }
    solid_to_region0
    {
        type            compressible::turbulentTemperatureCoupledBaffleMixed;
        refValue        nonuniform List<scalar> 
40
(
284.906
284.912
284.912
284.911
284.912
284.912
284.912
284.912
284.912
284.912
284.912
284.912
284.912
284.912
284.912
284.912
284.912
284.912
284.912
284.912
284.912
284.912
284.912
284.911
284.911
284.911
284.911
284.911
284.91
284.91
284.91
284.91
284.909
284.908
284.908
284.909
284.912
284.903
284.899
284.905
)
;
        refGradient     uniform 0;
        valueFraction   nonuniform List<scalar> 
40
(
0.0909091
0.0909091
0.0909091
0.0909091
0.0909091
0.0909091
0.0909091
0.0909091
0.0909091
0.0909091
0.0909091
0.0909091
0.0909091
0.0909091
0.0909091
0.0909091
0.0909091
0.0909091
0.0909091
0.0909091
0.0909091
0.0909091
0.0909091
0.0909091
0.0909091
0.0909091
0.0909091
0.0909091
0.0909091
0.0909091
0.0909091
0.0909091
0.0909091
0.0909091
0.0909091
0.0909091
0.0909091
0.0909091
0.0909091
0.0909091
)
;
        value           nonuniform List<scalar> 
40
(
286.586
286.589
286.588
286.588
286.588
286.588
286.588
286.588
286.588
286.588
286.589
286.589
286.589
286.589
286.589
286.589
286.589
286.589
286.588
286.588
286.588
286.588
286.588
286.588
286.588
286.587
286.587
286.587
286.587
286.586
286.586
286.586
286.585
286.585
286.585
286.585
286.585
286.583
286.582
286.583
)
;
        Tnbr            Tair;
        thicknessLayers 0();
        kappaLayers     0();
        kappaMethod     lookup;
        kappa           kappaSolid;
        alphaAni        Anialpha;
    }
}


// ************************************************************************* //
