/*--------------------------------*- C++ -*----------------------------------*\
  =========                 |
  \\      /  F ield         | OpenFOAM: The Open Source CFD Toolbox
   \\    /   O peration     | Website:  https://openfoam.org
    \\  /    A nd           | Version:  7
     \\/     M anipulation  |
\*---------------------------------------------------------------------------*/
FoamFile
{
    version     2.0;
    format      ascii;
    class       volVectorField;
    location    "0/dielectric";
    object      ED;
}
// * * * * * * * * * * * * * * * * * * * * * * * * * * * * * * * * * * * * * //

dimensions      [1 1 -3 0 0 -1 0];

internalField   nonuniform List<vector> 
127636
(
(526.818 -9.66709 0)
(3372.49 844.716 0)
(13089.6 4441.5 0)
(38339.6 18413 0)
(85502.5 63719.9 0)
(140249 166689 0)
(171113 307204 0)
(170384 420412 0)
(157802 485955 0)
(147316 519535 0)
(140333 537776 0)
(134213 552078 0)
(127527 566495 0)
(120259 580993 0)
(112394 595537 0)
(103922 610089 0)
(94832.3 624613 0)
(85119.4 639070 0)
(74780.9 653420 0)
(63817 667628 0)
(52230.7 681655 0)
(527.322 -7.90003 0)
(3377.38 838.351 0)
(13129.2 4387.04 0)
(38611.5 18133.7 0)
(86857.2 62758.9 0)
(144549 164918 0)
(179644 306301 0)
(182175 422023 0)
(171091 489652 0)
(161159 524442 0)
(154401 543373 0)
(148416 558230 0)
(141834 573221 0)
(134634 588309 0)
(126802 603457 0)
(118323 618623 0)
(109190 633768 0)
(99394.1 648850 0)
(88934.5 663827 0)
(77812 678659 0)
(66031.2 693305 0)
(527.821 -8.82748 0)
(3382.21 829.889 0)
(13168.2 4330.93 0)
(38879.2 17850.3 0)
(88198.9 61768.9 0)
(148857 163007 0)
(188310 305092 0)
(194288 423307 0)
(184833 493096 0)
(175516 529154 0)
(169012 548812 0)
(163183 564257 0)
(156721 579856 0)
(149605 595570 0)
(141817 611358 0)
(133342 627177 0)
(124170 642982 0)
(114294 658729 0)
(103712 674371 0)
(92427.1 689864 0)
(80444.4 705164 0)
(528.316 -9.75582 0)
(3386.97 821.412 0)
(13206.5 4274.59 0)
(39142.5 17563.9 0)
(89526.2 60750.6 0)
(153168 160956 0)
(197105 303560 0)
(206730 424238 0)
(199047 496260 0)
(190414 533648 0)
(184196 554073 0)
(178546 570138 0)
(172226 586381 0)
(165210 602760 0)
(157480 619231 0)
(149018 635744 0)
(139814 652252 0)
(129859 668706 0)
(119153 685055 0)
(107699 701250 0)
(95505 717243 0)
(528.807 -10.685 0)
(3391.67 812.922 0)
(13244.2 4218.02 0)
(39401.3 17274.5 0)
(90837.6 59704.4 0)
(157477 158762 0)
(206025 301694 0)
(219505 424788 0)
(213754 499113 0)
(205882 537896 0)
(199987 559129 0)
(194541 575851 0)
(188384 592779 0)
(181488 609865 0)
(173831 627062 0)
(165394 644316 0)
(156164 661574 0)
(146132 678783 0)
(135299 695885 0)
(123668 712827 0)
(111250 729555 0)
(529.293 -11.6151 0)
(3396.31 804.419 0)
(13281.2 4161.24 0)
(39655.5 16982.1 0)
(92131.9 58630.6 0)
(161778 156425 0)
(215061 299477 0)
(232618 424925 0)
(228973 501622 0)
(221948 541867 0)
(216418 563954 0)
(211206 581372 0)
(205238 599026 0)
(198484 616866 0)
(190918 634838 0)
(182517 652883 0)
(173268 670944 0)
(163161 688959 0)
(152195 706866 0)
(140378 724604 0)
(127722 742114 0)
(529.774 -12.546 0)
(3400.88 795.903 0)
(13317.6 4104.24 0)
(39904.9 16686.8 0)
(93407.6 57529.4 0)
(166066 153943 0)
(224206 296895 0)
(246072 424614 0)
(244725 503749 0)
(238645 545527 0)
(233527 568515 0)
(228581 586671 0)
(222833 605098 0)
(216246 623742 0)
(208790 642543 0)
(200440 661437 0)
(191179 680358 0)
(180998 699238 0)
(169895 718007 0)
(157878 736596 0)
(144965 754940 0)
(530.251 -13.4777 0)
(3405.39 787.373 0)
(13353.3 4047.03 0)
(40149.4 16388.6 0)
(94663.3 56401.1 0)
(170332 151316 0)
(233450 293933 0)
(259870 423818 0)
(261031 505452 0)
(256004 548836 0)
(251354 572776 0)
(246713 591716 0)
(241218 610967 0)
(234827 630470 0)
(227504 650160 0)
(219221 669965 0)
(209958 689811 0)
(199702 709621 0)
(188454 729317 0)
(176224 748820 0)
(163031 768055 0)
(530.724 -14.4103 0)
(3409.83 778.831 0)
(13388.3 3989.62 0)
(40388.8 16087.6 0)
(95897.6 55246.3 0)
(174571 148542 0)
(242782 290576 0)
(274010 422498 0)
(277910 506683 0)
(274061 551749 0)
(269940 576695 0)
(265648 596467 0)
(260447 616598 0)
(254286 637022 0)
(247124 657667 0)
(238926 678454 0)
(229670 699298 0)
(219341 720113 0)
(207940 740809 0)
(195477 761295 0)
(181976 781488 0)
(531.192 -15.3437 0)
(3414.21 770.275 0)
(13422.7 3932 0)
(40623.1 15783.9 0)
(97109 54065.2 0)
(178776 145622 0)
(252190 286809 0)
(288491 420608 0)
(295383 507388 0)
(292852 554213 0)
(289332 580224 0)
(285441 600881 0)
(280579 621952 0)
(274688 643365 0)
(267718 665041 0)
(259629 686888 0)
(250393 708814 0)
(239991 730718 0)
(228425 752497 0)
(215707 774048 0)
(201865 795274 0)
(531.655 -16.278 0)
(3418.52 761.708 0)
(13456.3 3874.19 0)
(40852 15477.5 0)
(98296.1 52858.4 0)
(182939 142555 0)
(261659 282617 0)
(303309 418104 0)
(313470 507508 0)
(312416 556171 0)
(309579 583306 0)
(306149 604906 0)
(301681 626983 0)
(296107 649462 0)
(289367 672251 0)
(281414 695250 0)
(272211 718351 0)
(261739 741441 0)
(249995 764399 0)
(236995 787108 0)
(222773 809452 0)
(532.114 -17.213 0)
(3422.77 753.128 0)
(13489.3 3816.18 0)
(41075.5 15168.5 0)
(99457.5 51626.4 0)
(187053 139342 0)
(271174 277985 0)
(318457 414933 0)
(332187 506975 0)
(332791 557553 0)
(330734 585877 0)
(327833 608480 0)
(323824 631638 0)
(318624 655265 0)
(312160 679262 0)
(304376 703515 0)
(295226 727901 0)
(284684 752287 0)
(272748 776536 0)
(259434 800510 0)
(244784 824074 0)
(532.568 -18.1488 0)
(3426.96 744.536 0)
(13521.6 3757.99 0)
(41293.5 14857 0)
(100592 50369.6 0)
(191109 135984 0)
(280716 272900 0)
(333922 411043 0)
(351552 505712 0)
(354017 558280 0)
(352850 587860 0)
(350563 611532 0)
(347089 635850 0)
(342330 660720 0)
(336199 686031 0)
(328624 711655 0)
(319550 737450 0)
(308943 763264 0)
(296798 788933 0)
(283134 814297 0)
(267997 839198 0)
(533.018 -19.0855 0)
(3431.07 735.933 0)
(13553.1 3699.6 0)
(41505.7 14543 0)
(101697 49088.8 0)
(195099 132481 0)
(290264 267349 0)
(349689 406376 0)
(371575 503634 0)
(376135 558262 0)
(375988 589166 0)
(374411 613977 0)
(371564 639541 0)
(367328 665758 0)
(361599 692505 0)
(354285 719634 0)
(345317 746984 0)
(334653 774375 0)
(322280 801619 0)
(308220 828521 0)
(292528 854896 0)
(533.463 -20.0229 0)
(3435.13 727.318 0)
(13584 3641.04 0)
(41712.2 14226.6 0)
(102773 47784.4 0)
(199014 128836 0)
(299797 261319 0)
(365737 400873 0)
(392266 500643 0)
(399185 557392 0)
(400207 589689 0)
(399457 615713 0)
(397346 642618 0)
(393734 670298 0)
(388491 698616 0)
(381503 727405 0)
(372682 756479 0)
(361971 785627 0)
(349351 814625 0)
(334843 843242 0)
(318512 871255 0)
(533.904 -20.9611 0)
(3439.11 718.691 0)
(13614.1 3582.31 0)
(41912.8 13907.8 0)
(103817 46457.2 0)
(202845 125049 0)
(309287 254799 0)
(382040 394471 0)
(413626 496631 0)
(423202 555549 0)
(425570 589305 0)
(425783 616617 0)
(424543 644966 0)
(421678 674237 0)
(417027 704281 0)
(410448 734909 0)
(401827 765904 0)
(391088 797021 0)
(378200 827990 0)
(363183 858534 0)
(346114 888381 0)
(534.34 -21.9001 0)
(3443.03 710.053 0)
(13643.5 3523.4 0)
(42107.3 13586.8 0)
(104829 45107.9 0)
(206583 121124 0)
(318707 247781 0)
(398562 387106 0)
(435648 491479 0)
(448219 552592 0)
(452138 587869 0)
(453480 616545 0)
(453271 646445 0)
(451304 677449 0)
(447379 709393 0)
(441317 742067 0)
(432968 775217 0)
(422230 808555 0)
(409053 841755 0)
(393457 874481 0)
(375528 906402 0)
(534.772 -22.8399 0)
(3446.89 701.404 0)
(13672.1 3464.32 0)
(42295.7 13263.6 0)
(105806 43737 0)
(210219 117063 0)
(328025 240256 0)
(415262 378709 0)
(458317 485051 0)
(474263 548355 0)
(479973 585206 0)
(482638 615321 0)
(483656 646884 0)
(482775 679775 0)
(479747 713817 0)
(474341 748775 0)
(466363 784357 0)
(455669 820218 0)
(442188 855966 0)
(425930 891190 0)
(406994 925476 0)
(535.199 -23.7803 0)
(3450.67 692.745 0)
(13700.1 3405.08 0)
(42477.9 12938.2 0)
(106748 42345.6 0)
(213742 112869 0)
(337207 232220 0)
(432083 369217 0)
(481599 477201 0)
(501344 542651 0)
(509123 581112 0)
(513344 612733 0)
(515829 646072 0)
(516269 681015 0)
(514353 717376 0)
(509787 754895 0)
(502313 793235 0)
(491734 831986 0)
(477939 870672 0)
(460923 908780 0)
(440800 945795 0)
(535.621 -24.7216 0)
(3454.39 684.074 0)
(13727.3 3345.68 0)
(42653.7 12610.9 0)
(107653 40934.4 0)
(217143 108547 0)
(346216 223671 0)
(448963 358563 0)
(505444 467766 0)
(529459 535262 0)
(539631 575345 0)
(545687 608526 0)
(549929 643751 0)
(551981 680918 0)
(551455 719843 0)
(547972 760242 0)
(541187 801729 0)
(530827 843816 0)
(516723 885920 0)
(498842 927401 0)
(477312 967602 0)
(536.039 -25.6636 0)
(3458.05 675.394 0)
(13753.7 3286.14 0)
(42823.1 12281.6 0)
(108520 39504.1 0)
(220412 104100 0)
(355011 214607 0)
(465824 346686 0)
(529782 456575 0)
(558581 525941 0)
(571516 567621 0)
(579737 602393 0)
(586092 639599 0)
(590123 679166 0)
(591344 720921 0)
(589267 764563 0)
(583430 809659 0)
(573448 855629 0)
(559065 901757 0)
(540200 947229 0)
(516990 991198 0)
(536.452 -26.6063 0)
(3461.63 666.703 0)
(13779.4 3226.44 0)
(42986 11950.3 0)
(109347 38055.8 0)
(223538 99532.8 0)
(363548 205034 0)
(482574 333528 0)
(554510 443442 0)
(588649 514409 0)
(604771 557610 0)
(615546 593968 0)
(624443 633223 0)
(630910 675353 0)
(634342 720217 0)
(634104 767515 0)
(629576 816768 0)
(620214 867295 0)
(605627 918209 0)
(585652 968472 0)
(560423 1016970 0)
(536.861 -27.5497 0)
(3465.15 658.003 0)
(13804.3 3166.6 0)
(43142.2 11617.3 0)
(110134 36590.2 0)
(226513 94851.4 0)
(371782 194959 0)
(499105 319041 0)
(579493 428179 0)
(619558 500356 0)
(639341 544929 0)
(653126 582812 0)
(665083 624138 0)
(674557 668966 0)
(680797 717217 0)
(682983 768624 0)
(680277 822680 0)
(671905 878596 0)
(657265 935277 0)
(636056 991378 0)
(608381 1045410 0)
(537.265 -28.4938 0)
(3468.6 649.292 0)
(13828.5 3106.62 0)
(43291.8 11282.6 0)
(110880 35108.3 0)
(229327 90061.4 0)
(379663 184393 0)
(515292 303188 0)
(604556 410598 0)
(651144 483446 0)
(675109 529144 0)
(692424 568413 0)
(708061 611756 0)
(721250 659353 0)
(731070 711243 0)
(736469 767238 0)
(736314 826844 0)
(729497 889174 0)
(715091 952889 0)
(692547 1016230 0)
(661893 1077170 0)
(537.664 -29.4387 0)
(3471.99 640.573 0)
(13851.9 3046.51 0)
(43434.6 10946.3 0)
(111583 33611.2 0)
(231969 85168.9 0)
(387142 173353 0)
(530995 285944 0)
(629474 390519 0)
(683169 463320 0)
(711872 509772 0)
(733305 550177 0)
(753346 595364 0)
(771117 645697 0)
(785510 701399 0)
(795188 762449 0)
(798628 828444 0)
(794240 898449 0)
(780583 970851 0)
(756680 1043350 0)
(722371 1113110 0)
(538.059 -30.3842 0)
(3475.31 631.843 0)
(13874.6 2986.27 0)
(43570.5 10608.4 0)
(112242 32099.7 0)
(234431 80180.8 0)
(394166 161859 0)
(546054 267307 0)
(653969 367784 0)
(715304 439620 0)
(749310 486294 0)
(775498 527435 0)
(800771 574126 0)
(824165 626982 0)
(844390 686515 0)
(859783 752999 0)
(868317 826272 0)
(867714 905467 0)
(855726 988726 0)
(830618 1073040 0)
(791805 1154390 0)
(538.449 -31.3305 0)
(3478.55 623.105 0)
(13896.5 2925.9 0)
(43699.5 10269 0)
(112857 30574.9 0)
(236703 75104.5 0)
(400683 149938 0)
(560295 247293 0)
(677707 342273 0)
(747110 412004 0)
(786955 458178 0)
(818554 499464 0)
(849965 547082 0)
(880199 601976 0)
(907823 665079 0)
(930840 737154 0)
(946614 818523 0)
(951915 908655 0)
(943228 1005610 0)
(917466 1105540 0)
(873111 1202610 0)
(538.835 -32.2774 0)
(3481.73 614.358 0)
(13917.6 2865.42 0)
(43821.6 9928.28 0)
(113427 29038 0)
(238779 69947.6 0)
(406642 137621 0)
(573534 225948 0)
(700295 313920 0)
(778025 380184 0)
(824158 424921 0)
(861787 465529 0)
(900266 513183 0)
(938691 569236 0)
(975595 635189 0)
(1008720 712551 0)
(1034780 802526 0)
(1049290 905419 0)
(1046810 1019680 0)
(1021830 1140710 0)
(970760 1260050 0)
(539.216 -33.225 0)
(3484.85 605.602 0)
(13937.9 2804.82 0)
(43936.6 9586.24 0)
(113950 27489.8 0)
(240649 64718.2 0)
(411993 124943 0)
(585576 203344 0)
(721288 282736 0)
(807359 343973 0)
(860062 386114 0)
(904219 424957 0)
(950620 471374 0)
(998615 527168 0)
(1046930 594548 0)
(1093260 676066 0)
(1133810 774363 0)
(1162680 891477 0)
(1171600 1027370 0)
(1150770 1177490 0)
(1092000 1329880 0)
(539.592 -34.1733 0)
(3487.89 596.838 0)
(13957.4 2744.11 0)
(44044.5 9243.01 0)
(114427 25931.6 0)
(242308 59425.1 0)
(416688 111945 0)
(596226 179586 0)
(740201 248825 0)
(834304 303332 0)
(893596 341520 0)
(944538 377249 0)
(999471 420730 0)
(1058240 474187 0)
(1120120 540585 0)
(1183260 623770 0)
(1243850 728480 0)
(1294850 859846 0)
(1324410 1021650 0)
(1315450 1212130 0)
(1249450 1416340 0)
(539.964 -35.1222 0)
(3490.87 588.066 0)
(13976.2 2683.29 0)
(44145.3 8898.67 0)
(114856 24364.4 0)
(243750 54077.1 0)
(420685 98673.9 0)
(605297 154813 0)
(756532 212405 0)
(857964 258436 0)
(923501 291183 0)
(981098 322240 0)
(1044710 360687 0)
(1114940 409016 0)
(1192110 470804 0)
(1275640 551196 0)
(1362950 657490 0)
(1447220 799545 0)
(1513520 988913 0)
(1533850 1233820 0)
(1467060 1523530 0)
(540.331 -36.0717 0)
(3493.77 579.285 0)
(13994.2 2622.38 0)
(44238.9 8553.3 0)
(115237 22789.4 0)
(244969 48683.4 0)
(423948 85178.7 0)
(612618 129194 0)
(769794 173815 0)
(877415 209715 0)
(948403 235528 0)
(1012000 260269 0)
(1083690 291337 0)
(1165120 331165 0)
(1258120 383493 0)
(1364460 454216 0)
(1484900 552820 0)
(1616520 694674 0)
(1745910 903857 0)
(1834340 1213320 0)
(1795460 1646600 0)
(540.694 -37.022 0)
(3496.61 570.497 0)
(14011.4 2561.37 0)
(44325.3 8207 0)
(115570 21207.7 0)
(245962 43253.5 0)
(426446 71512.4 0)
(618046 102926 0)
(779555 133516 0)
(891792 157885 0)
(966954 175436 0)
(1035270 192337 0)
(1113520 213735 0)
(1204390 241539 0)
(1311550 278851 0)
(1439990 330966 0)
(1596340 407414 0)
(1787930 526377 0)
(2016900 724334 0)
(2254740 1076180 0)
(2355330 1723840 0)
(541.051 -36.7072 0)
(3499.38 562.678 0)
(14027.7 2500.94 0)
(44404.4 7860.28 0)
(115854 19620.7 0)
(246725 37797.1 0)
(428159 57731.3 0)
(621475 76229.3 0)
(785480 92074.4 0)
(900400 103929 0)
(978025 112253 0)
(1049170 120168 0)
(1131450 130099 0)
(1228320 142954 0)
(1344920 160263 0)
(1489250 184789 0)
(1674570 221960 0)
(1924120 283665 0)
(2279540 399850 0)
(2804440 660354 0)
(3473050 1393100 0)
(39909.4 695595 0)
(26849.2 709405 0)
(13168.5 722926 0)
(-1119.55 736129 0)
(-16002.1 748990 0)
(-31466 761487 0)
(-47496.2 773603 0)
(-64078.3 785323 0)
(-81200.7 796638 0)
(-98853.6 807543 0)
(-117027 818033 0)
(-135715 828106 0)
(-154914 837767 0)
(-174627 847017 0)
(-194856 855864 0)
(-215608 864311 0)
(-236896 872367 0)
(-258737 880040 0)
(-281151 887335 0)
(-304162 894260 0)
(-327803 900820 0)
(-352109 907021 0)
(-377120 912866 0)
(-402882 918357 0)
(-429450 923496 0)
(-456884 928281 0)
(-485250 932711 0)
(-514624 936782 0)
(-545094 940493 0)
(-576754 943842 0)
(-609702 946835 0)
(-643053 949521 0)
(-820941 942103 0)
(-708351 943774 0)
(-747379 944867 0)
(-788516 945501 0)
(-832028 945699 0)
(-878242 945471 0)
(-927551 944842 0)
(-980450 943848 0)
(-1037550 942553 0)
(-1099660 941060 0)
(-1167770 939554 0)
(-1380920 928584 0)
(-1316540 926678 0)
(-1411640 925150 0)
(-1521930 924890 0)
(-1652880 927052 0)
(-1813130 933710 0)
(-2017270 948971 0)
(-2292120 981993 0)
(-2693450 1057060 0)
(-3358470 1258240 0)
(-4694440 2042010 0)
(53478.9 707861 0)
(40153.4 722283 0)
(26177.9 736403 0)
(11569.1 750191 0)
(-3656.53 763621 0)
(-19481.9 776672 0)
(-35888.1 789327 0)
(-52856.9 801572 0)
(-70373.1 813399 0)
(-88423.6 824805 0)
(-106996 835787 0)
(-126080 846348 0)
(-145671 856492 0)
(-165770 866229 0)
(-186378 875566 0)
(-207501 884514 0)
(-229150 893083 0)
(-251345 901286 0)
(-274103 909135 0)
(-297451 916640 0)
(-321420 923812 0)
(-346049 930661 0)
(-371377 937197 0)
(-397452 943426 0)
(-424329 949357 0)
(-452070 954996 0)
(-480741 960348 0)
(-510419 965419 0)
(-541190 970215 0)
(-573148 974743 0)
(-606393 979013 0)
(-640118 983026 0)
(-823954 977058 0)
(-706240 980220 0)
(-745606 983183 0)
(-787045 985935 0)
(-830824 988524 0)
(-877257 991021 0)
(-926713 993522 0)
(-979657 996165 0)
(-1036650 999144 0)
(-1098430 1002740 0)
(-1165900 1007340 0)
(-1390640 1003500 0)
(-1313140 1010620 -1.25604e-15)
(-1406070 1021150 1.19391e-15)
(-1512380 1036760 0)
(-1636640 1060580 1.05542e-15)
(-1785100 1097920 0)
(-1967520 1158930 0)
(-2197980 1264030 0)
(-2494840 1459430 0)
(-2859900 1859310 0)
(-3117030 2724260 0)
(67651.1 720370 0)
(54047.7 735435 0)
(39763.1 750181 0)
(24817.8 764577 0)
(9232.88 778596 0)
(-6970.3 792217 0)
(-23768.3 805423 0)
(-41138.4 818200 0)
(-59061.3 830543 0)
(-77519.9 842451 0)
(-96498.2 853924 0)
(-115983 864967 0)
(-135969 875589 0)
(-156452 885804 0)
(-177432 895622 0)
(-198915 905059 0)
(-220912 914131 0)
(-243440 922855 0)
(-266520 931246 0)
(-290176 939321 0)
(-314441 947096 0)
(-339354 954586 0)
(-364955 961805 0)
(-391294 968766 0)
(-418424 975485 0)
(-446410 981972 0)
(-475318 988241 0)
(-505222 994305 0)
(-536209 1000180 0)
(-568370 1005880 0)
(-601809 1011420 0)
(-635719 1016830 0)
(-825429 1012050 0)
(-702469 1016880 0)
(-741951 1021690 0)
(-783453 1026520 0)
(-827218 1031440 0)
(-873532 1036570 0)
(-922722 1042080 0)
(-975197 1048180 0)
(-1031440 1055190 0)
(-1092060 1063520 0)
(-1157810 1073750 0)
(-1392410 1076240 0)
(-1300500 1091710 0)
(-1388080 1112580 0)
(-1486560 1141410 0)
(-1598500 1182290 0)
(-1726960 1241960 0)
(-1874940 1331850 0)
(-2043000 1471990 0)
(-2220810 1697320 0)
(-2360850 2060290 0)
(-2324100 2587060 0)
(82457.7 733136 0)
(68560.7 748875 0)
(53948.8 764277 0)
(38647.6 779306 0)
(22682.9 793934 0)
(6081.45 808140 0)
(-11128.1 821907 0)
(-28917.9 835223 0)
(-47263.8 848084 0)
(-66144.4 860492 0)
(-85539.5 872450 0)
(-105433 883967 0)
(-125815 895058 0)
(-146681 905738 0)
(-168029 916024 0)
(-189862 925937 0)
(-212192 935496 0)
(-235036 944726 0)
(-258412 953645 0)
(-282347 962276 0)
(-306874 970639 0)
(-332033 978756 0)
(-357864 986646 0)
(-384416 994328 0)
(-411745 1001820 0)
(-439914 1009150 0)
(-468988 1016320 0)
(-499042 1023360 0)
(-530160 1030300 0)
(-562432 1037160 0)
(-595955 1043960 0)
(-629920 1050740 0)
(-825401 1047120 0)
(-697042 1053590 0)
(-736457 1060200 0)
(-777807 1067020 0)
(-821307 1074160 0)
(-867200 1081780 0)
(-915762 1090100 0)
(-967324 1099400 0)
(-1022270 1110060 0)
(-1081060 1122590 0)
(-1144230 1137720 0)
(-1387050 1145710 0)
(-1279750 1168010 0)
(-1360390 1197000 0)
(-1448710 1235470 0)
(-1545500 1287590 0)
(-1650710 1359630 1.08679e-15)
(-1763120 1461150 -1.00926e-15)
(-1874950 1605580 0)
(-1968530 1810110 0)
(-2003950 2086170 0)
(-1917380 2410090 6.61095e-16)
(97933.1 746173 0)
(83722.7 762623 0)
(68761.3 778711 0)
(53079.9 794398 0)
(36710.3 809656 0)
(19685.4 824462 0)
(2039.86 838799 0)
(-16192.4 852659 0)
(-34981.8 866037 0)
(-54301.7 878940 0)
(-74127.4 891375 0)
(-94438.7 903356 0)
(-115223 914899 0)
(-136472 926028 0)
(-158184 936765 0)
(-180358 947134 0)
(-203007 957162 0)
(-226147 966877 0)
(-249796 976305 0)
(-273981 985473 0)
(-298736 994406 0)
(-324100 1003130 0)
(-350116 1011680 0)
(-376832 1020060 0)
(-404304 1028310 0)
(-432594 1036460 0)
(-461769 1044520 0)
(-491898 1052520 0)
(-523065 1060500 0)
(-555355 1068480 0)
(-588860 1076510 0)
(-622765 1084630 0)
(-823904 1082140 0)
(-690013 1090190 0)
(-729200 1098520 0)
(-770211 1107220 0)
(-813227 1116450 0)
(-858448 1126380 0)
(-906085 1137250 0)
(-956385 1149400 0)
(-1009620 1163230 0)
(-1066080 1179340 0)
(-1126100 1198470 0)
(-1375950 1210950 0)
(-1252890 1238390 0)
(-1325710 1273010 0)
(-1403100 1317410 0)
(-1484470 1375190 0)
(-1568050 1451260 0)
(-1649640 1551910 0)
(-1720630 1684320 0)
(-1765120 1853830 0)
(-1758580 2056880 0)
(-1674590 2269870 0)
(114115 759500 0)
(99566.6 776700 0)
(84228.3 793507 0)
(68137.2 809880 0)
(51332.1 825788 0)
(33852.8 841209 0)
(15741.6 856126 0)
(-2961.06 870530 0)
(-22218.9 884424 0)
(-41999.6 897814 0)
(-62273.2 910713 0)
(-83015.2 923140 0)
(-104209 935119 0)
(-125845 946676 0)
(-147916 957840 0)
(-170424 968641 0)
(-193378 979114 0)
(-216794 989290 0)
(-240692 999202 0)
(-265098 1008880 0)
(-290046 1018360 0)
(-315576 1027670 0)
(-341732 1036850 0)
(-368561 1045910 0)
(-396121 1054900 0)
(-424473 1063840 0)
(-453680 1072760 0)
(-483813 1081700 0)
(-514950 1090690 0)
(-547172 1099770 0)
(-580565 1108980 0)
(-614310 1118380 0)
(-820985 1117000 0)
(-681456 1126540 0)
(-720277 1136500 0)
(-760792 1146970 0)
(-803151 1158110 0)
(-847503 1170120 0)
(-893994 1183260 0)
(-942787 1197870 0)
(-994032 1214380 0)
(-1047880 1233360 0)
(-1104440 1255580 0)
(-1360070 1271470 0)
(-1221840 1302350 0)
(-1286810 1340270 0)
(-1353710 1387370 0)
(-1421130 1446410 0)
(-1486440 1520680 0)
(-1545150 1613750 -1.14508e-15)
(-1589040 1728320 0)
(-1607380 1864270 0)
(-1586280 2014720 0)
(-1514790 2162900 0)
(131043 773142 0)
(116128 791134 0)
(100380 808696 0)
(83843 825784 0)
(66565 842365 0)
(48594.3 858414 0)
(29981.2 873916 0)
(10774.5 888866 0)
(-8982.22 903268 0)
(-29249.9 917133 0)
(-49992.7 930480 0)
(-71181.3 943333 0)
(-92795.3 955721 0)
(-114821 967679 0)
(-137252 979242 0)
(-160085 990448 0)
(-183331 1001330 0)
(-207004 1011940 0)
(-231126 1022310 0)
(-255722 1032470 0)
(-280828 1042470 0)
(-306484 1052340 0)
(-332735 1062120 0)
(-359628 1071840 0)
(-387220 1081540 0)
(-415574 1091240 0)
(-444750 1101000 0)
(-474817 1110840 0)
(-505850 1120800 0)
(-537925 1130930 0)
(-571120 1141270 0)
(-604614 1151900 0)
(-816699 1151600 0)
(-671460 1162550 0)
(-709801 1174010 0)
(-749699 1186100 0)
(-791269 1198980 0)
(-834613 1212840 0)
(-879815 1227940 0)
(-926957 1244620 0)
(-976084 1263290 0)
(-1027210 1284490 0)
(-1080270 1308890 0)
(-1341070 1327170 0)
(-1188390 1359990 0)
(-1246080 1399250 0)
(-1303680 1446580 0)
(-1359450 1503830 0)
(-1410600 1572980 0)
(-1452900 1655580 0)
(-1480420 1752030 0)
(-1485750 1860090 0)
(-1461380 1973350 0)
(-1402780 2080630 0)
(148765 787127 0)
(133447 805959 0)
(117248 824316 0)
(100222 842149 0)
(82426.2 859424 0)
(63919 876115 0)
(44760.7 892208 0)
(25009.5 907700 0)
(4717.5 922599 0)
(-16068.6 936922 0)
(-37306.5 950695 0)
(-58961.2 963946 0)
(-81008.1 976715 0)
(-103431 989042 0)
(-126220 1000970 0)
(-149372 1012540 0)
(-172896 1023810 0)
(-196807 1034810 0)
(-221128 1045600 0)
(-245883 1056210 0)
(-271111 1066700 0)
(-296853 1077090 0)
(-323152 1087440 0)
(-350059 1097790 0)
(-377631 1108160 0)
(-405927 1118600 0)
(-435010 1129160 0)
(-464945 1139860 0)
(-495805 1150750 0)
(-527658 1161890 0)
(-560579 1173320 0)
(-593747 1185100 0)
(-811108 1185830 0)
(-660122 1198100 0)
(-697892 1210970 0)
(-737083 1224540 0)
(-777777 1238960 0)
(-820032 1254440 0)
(-863876 1271210 0)
(-909318 1289580 0)
(-956316 1309930 0)
(-1004770 1332720 0)
(-1054480 1358540 0)
(-1319610 1378280 0)
(-1154150 1411860 0)
(-1205470 1450980 0)
(-1255170 1496780 0)
(-1301770 1550430 0)
(-1342540 1612890 0)
(-1374030 1684540 0)
(-1392100 1764650 -1.22677e-15)
(-1391240 1850450 0)
(-1368500 1936970 0)
(-1321460 2016700 1.03933e-15)
(167330 801491 0)
(151566 821214 0)
(134867 840409 0)
(117300 859022 0)
(98932.4 877014 0)
(79835 894360 0)
(60079.7 911046 0)
(39735.6 927073 0)
(18864.9 942454 0)
(-2477.12 957213 0)
(-24240.7 971381 0)
(-46384.9 984999 0)
(-68880.7 998111 0)
(-91708.7 1010770 0)
(-114856 1023020 0)
(-138321 1034920 0)
(-162109 1046520 0)
(-186240 1057880 0)
(-210732 1069050 0)
(-235617 1080070 0)
(-260929 1091000 0)
(-286714 1101890 0)
(-313017 1112770 0)
(-339887 1123700 0)
(-367384 1134720 0)
(-395566 1145860 0)
(-424496 1157180 0)
(-454236 1168700 0)
(-484856 1180490 0)
(-516422 1192590 0)
(-549000 1205040 0)
(-581774 1217920 0)
(-804281 1219640 0)
(-647539 1233130 0)
(-684674 1247280 0)
(-723099 1262190 0)
(-762869 1278000 0)
(-804002 1294870 0)
(-846481 1313040 0)
(-890258 1332760 0)
(-935217 1354350 0)
(-981179 1378210 0)
(-1027850 1404800 0)
(-1297480 1425300 0)
(-1119770 1458640 0)
(-1165800 1496590 0)
(-1209520 1539830 0)
(-1249240 1588960 0)
(-1282790 1644300 0)
(-1307440 1705580 0)
(-1320140 1771610 0)
(-1317840 1839930 0)
(-1298250 1906630 0)
(-1260660 1966660 0)
(186795 816274 0)
(170533 836949 0)
(153276 857031 0)
(135105 876459 0)
(116101 895191 0)
(96348.5 913203 0)
(75934.3 930481 0)
(54940 947032 0)
(33439.2 962873 0)
(11497.2 978039 0)
(-10828.1 992568 0)
(-33489.4 1006510 0)
(-56452.8 1019920 0)
(-79695.9 1032860 0)
(-103204 1045390 0)
(-126975 1057560 0)
(-151015 1069460 0)
(-175343 1081120 0)
(-199981 1092620 0)
(-224960 1104010 0)
(-250320 1115350 0)
(-276105 1126680 0)
(-302364 1138070 0)
(-329148 1149540 0)
(-356515 1161160 0)
(-384526 1172970 0)
(-413244 1185000 0)
(-442728 1197320 0)
(-473048 1209950 0)
(-504265 1222950 0)
(-536440 1236380 0)
(-568764 1250280 0)
(-796242 1252960 0)
(-633804 1267590 0)
(-670261 1282920 0)
(-707889 1299040 0)
(-746720 1316060 0)
(-786744 1334140 0)
(-827905 1353470 0)
(-870111 1374240 0)
(-913198 1396730 0)
(-956928 1421230 0)
(-1000950 1448100 0)
(-1274740 1468770 0)
(-1086480 1501270 0)
(-1128340 1537390 0)
(-1167420 1577490 0)
(-1202260 1621790 0)
(-1231050 1670200 0)
(-1251710 1722130 0)
(-1262070 1776330 0)
(-1260160 1830690 0)
(-1244650 1882290 0)
(-1215330 1927640 0)
(207227 831529 0)
(190403 853223 0)
(172517 874245 0)
(153666 894527 0)
(133947 914025 0)
(113463 932711 0)
(92316.6 950577 0)
(70604.2 967634 0)
(48413.1 983908 0)
(25819.6 999443 0)
(2890.68 1014290 0)
(-20319.4 1028500 0)
(-43772.2 1042160 0)
(-67442.2 1055320 0)
(-91313.8 1068070 0)
(-115383 1080470 0)
(-139660 1092590 0)
(-164163 1104520 0)
(-188919 1116300 0)
(-213958 1128010 0)
(-239325 1139700 0)
(-265067 1151440 0)
(-291233 1163270 0)
(-317878 1175250 0)
(-345062 1187440 0)
(-372846 1199860 0)
(-401293 1212580 0)
(-430464 1225640 0)
(-460425 1239070 0)
(-491236 1252940 0)
(-522954 1267280 0)
(-554780 1282160 0)
(-787190 1285730 0)
(-619009 1301430 0)
(-654761 1317840 0)
(-691582 1335050 0)
(-729488 1353160 0)
(-768447 1372290 0)
(-808377 1392570 0)
(-849155 1414170 0)
(-890586 1437280 0)
(-932401 1462110 0)
(-974219 1488900 0)
(-1252210 1509330 0)
(-1054620 1540600 0)
(-1093350 1574550 0)
(-1129140 1611310 0)
(-1160740 1650830 0)
(-1186670 1692790 0)
(-1205360 1736500 0)
(-1215240 1780770 0)
(-1214980 1823870 0)
(-1203790 1863630 0)
(-1181640 1897560 0)
(228699 847317 0)
(211237 870106 0)
(192637 892129 0)
(173014 913309 0)
(152487 933596 0)
(131180 952964 0)
(109214 971408 0)
(86703.3 988946 0)
(63751.3 1005620 0)
(40446.5 1021470 0)
(16866 1036580 0)
(-6929.07 1051010 0)
(-30895.4 1064840 0)
(-55005.3 1078170 0)
(-79242.4 1091070 0)
(-103604 1103620 0)
(-128101 1115920 0)
(-152756 1128030 0)
(-177596 1140040 0)
(-202660 1152010 0)
(-227992 1164010 0)
(-253643 1176100 0)
(-279666 1188340 0)
(-306120 1200790 0)
(-333064 1213490 0)
(-360565 1226490 0)
(-388684 1239850 0)
(-417484 1253610 0)
(-447030 1267810 0)
(-477382 1282490 0)
(-508594 1297700 0)
(-539881 1313500 0)
(-777002 1317940 0)
(-603225 1334630 0)
(-638259 1352050 0)
(-674281 1370260 0)
(-711297 1389350 0)
(-749259 1409390 0)
(-788071 1430480 0)
(-827593 1452740 0)
(-867614 1476280 0)
(-907854 1501230 0)
(-947927 1527710 0)
(-1230270 1547650 0)
(-1024440 1577470 0)
(-1060990 1609140 0)
(-1094640 1642580 0)
(-1124340 1677590 0)
(-1148880 1713740 0)
(-1167040 1750290 0)
(-1177670 1786210 0)
(-1179840 1820080 0)
(-1173010 1850270 0)
(-1157220 1874990 0)
(251296 863713 0)
(233104 887686 0)
(213687 910778 0)
(193182 932901 0)
(171736 954002 0)
(149495 974055 0)
(126606 993061 0)
(103204 1011050 0)
(79408.6 1028060 0)
(55323.9 1044180 0)
(31037.1 1059480 0)
(6616.86 1074050 0)
(-17889.6 1087990 0)
(-42452.8 1101400 0)
(-67056.9 1114380 0)
(-91700.9 1127020 0)
(-116400 1139410 0)
(-141179 1151650 0)
(-166071 1163820 0)
(-191118 1175990 0)
(-216369 1188230 0)
(-241880 1200630 0)
(-267709 1213220 0)
(-293914 1226080 0)
(-320563 1239260 0)
(-347722 1252810 0)
(-375455 1266760 0)
(-403827 1281180 0)
(-432903 1296100 0)
(-462745 1311560 0)
(-493405 1327600 0)
(-524113 1344260 0)
(-765914 1349540 0)
(-586519 1367160 0)
(-620833 1385530 0)
(-656075 1404680 0)
(-692247 1424660 0)
(-729295 1445530 0)
(-767117 1467340 0)
(-805569 1490140 0)
(-844439 1513990 0)
(-883448 1538940 0)
(-922225 1565020 0)
(-1209150 1584300 0)
(-996027 1612660 0)
(-1031230 1642080 0)
(-1063730 1672400 0)
(-1092610 1703290 0)
(-1116890 1734260 0)
(-1135600 1764620 0)
(-1147850 1793430 0)
(-1152930 1819620 0)
(-1150460 1841880 0)
(-1140440 1858960 0)
(275119 880805 0)
(256086 906065 0)
(235725 930304 0)
(214205 953423 0)
(191704 975361 0)
(168399 996097 0)
(144465 1015640 0)
(120061 1034030 0)
(95327.7 1051330 0)
(70384.9 1067640 0)
(45330.8 1083050 0)
(20241.1 1097670 0)
(-4833.54 1111630 0)
(-29863.2 1125030 0)
(-54834 1137990 0)
(-79748.6 1150630 0)
(-104626 1163040 0)
(-129499 1175330 0)
(-154404 1187590 0)
(-179390 1199890 0)
(-204511 1212330 0)
(-229830 1224970 0)
(-255407 1237870 0)
(-281307 1251100 0)
(-307601 1264700 0)
(-334358 1278740 0)
(-361646 1293260 0)
(-389531 1308300 0)
(-418083 1323900 0)
(-447362 1340100 0)
(-477425 1356930 0)
(-507518 1374430 0)
(-753776 1380520 0)
(-568936 1399040 0)
(-602531 1418310 0)
(-637016 1438340 0)
(-672396 1459170 0)
(-708618 1480820 0)
(-745584 1503290 0)
(-783155 1526590 0)
(-821127 1550710 0)
(-859239 1575640 0)
(-897145 1601300 0)
(-1188930 1619920 0)
(-969322 1646860 0)
(-1003920 1674200 0)
(-1036090 1701670 0)
(-1065050 1728880 0)
(-1089970 1755310 0)
(-1110060 1780310 0)
(-1124570 1803080 0)
(-1132950 1822710 0)
(-1134830 1838230 0)
(-1130180 1848700 0)
(300284 898705 0)
(280273 925372 0)
(258816 950847 0)
(236120 975016 0)
(212401 997814 0)
(187876 1019220 0)
(162751 1039260 0)
(137216 1057990 0)
(111436 1075500 0)
(85546.8 1091900 0)
(59657.9 1107320 0)
(33851.6 1121900 0)
(8180.5 1135760 0)
(-17327 1149050 0)
(-42661 1161910 0)
(-67829.7 1174440 0)
(-92859.3 1186790 0)
(-117789 1199040 0)
(-142664 1211310 0)
(-167539 1223690 0)
(-192477 1236240 0)
(-217544 1249070 0)
(-242809 1262220 0)
(-268343 1275760 0)
(-294219 1289750 0)
(-320511 1304240 0)
(-347292 1319280 0)
(-374631 1334900 0)
(-402601 1351150 0)
(-431266 1368060 0)
(-460685 1385650 0)
(-490126 1403960 0)
(-740810 1410850 0)
(-550512 1430240 0)
(-583388 1450380 0)
(-617140 1471290 0)
(-651779 1492950 0)
(-687262 1515350 0)
(-723500 1538480 0)
(-760369 1562290 0)
(-797685 1586700 0)
(-835211 1611640 0)
(-872636 1636980 0)
(-1169620 1654970 0)
(-944175 1680670 0)