/*--------------------------------*- C++ -*----------------------------------*\
  =========                 |
  \\      /  F ield         | OpenFOAM: The Open Source CFD Toolbox
   \\    /   O peration     | Website:  https://openfoam.org
    \\  /    A nd           | Version:  7
     \\/     M anipulation  |
\*---------------------------------------------------------------------------*/
FoamFile
{
    version     2.0;
    format      ascii;
    class       volVectorField;
    location    "0";
    object      Fc;
}
// * * * * * * * * * * * * * * * * * * * * * * * * * * * * * * * * * * * * * //

dimensions      [1 -2 -2 0 0 0 0];

internalField   nonuniform List<vector> 
58002
(
(0 0 0)
(0 0 0)
(0 0 0)
(0 0 0)
(0 0 0)
(0 0 0)
(0 0 0)
(0 0 0)
(0 0 0)
(0 0 0)
(0 0 0)
(9.73162e-318 -5.41791e-317 0)
(1.35337e-313 -1.99028e-312 0)
(-2.03031e-309 -4.66379e-308 0)
(-1.12072e-304 -7.16496e-304 0)
(-1.9875e-300 -7.34211e-300 0)
(-1.97194e-296 -5.11409e-296 0)
(-1.24682e-292 -2.49411e-292 0)
(-5.3775e-289 -8.79378e-289 0)
(-1.66004e-285 -2.3099e-285 0)
(-3.82113e-282 -4.66443e-282 0)
(-6.91818e-279 -7.58813e-279 0)
(-1.06597e-275 -1.06938e-275 0)
(-1.53168e-272 -1.4256e-272 0)
(-2.29073e-269 -1.99564e-269 0)
(-2.83958e-266 -2.35311e-266 0)
(-4.93384e-264 -3.88541e-264 0)
(3.35851e-262 2.61343e-262 0)
(3.36642e-259 2.53803e-259 0)
(1.00158e-256 7.58841e-257 0)
(1.10597e-254 8.26577e-255 0)
(1.56439e-252 1.16312e-252 0)
(-1.03716e-248 -7.6427e-249 0)
(-1.07967e-246 -7.86775e-247 0)
(5.56603e-244 4.00636e-244 0)
(1.46376e-241 1.03971e-241 0)
(-7.43361e-238 -5.20824e-238 0)
(-1.06238e-235 -7.3398e-236 0)
(1.54204e-233 1.05031e-233 0)
(5.47998e-231 3.67911e-231 0)
(-2.04153e-227 -1.35085e-227 0)
(-5.72405e-225 -3.73221e-225 0)
(1.28138e-221 8.23163e-222 0)
(3.62289e-219 2.29262e-219 0)
(-5.075e-216 -3.16324e-216 0)
(-1.33777e-213 -8.21166e-214 0)
(9.90852e-211 5.98913e-211 0)
(1.88272e-209 1.12042e-209 0)
(1.06102e-207 6.21585e-208 0)
(9.72706e-208 5.60897e-208 0)
(-2.46265e-204 -1.39754e-204 0)
(-4.31711e-200 -2.41078e-200 0)
(-1.75984e-197 -9.66876e-198 0)
(2.22618e-195 1.20319e-195 0)
(9.811e-194 5.21549e-194 0)
(2.78912e-190 1.45815e-190 0)
(2.12116e-187 1.0904e-187 0)
(-1.46267e-185 -7.39221e-186 0)
(-1.60475e-183 -7.97177e-184 0)
(-6.99588e-181 -3.41528e-181 0)
(-6.97738e-178 -3.34665e-178 0)
(-2.76432e-178 -1.30244e-178 0)
(2.5382e-174 1.17452e-174 0)
(-9.81102e-173 -4.45819e-173 0)
(-1.21099e-170 -5.40317e-171 0)
(-1.89968e-168 -8.32193e-169 0)
(-6.39025e-165 -2.74826e-165 0)
(2.2277e-163 9.40477e-164 0)
(7.84516e-162 3.25081e-162 0)
(1.13214e-160 4.60407e-161 0)
(1.01943e-159 4.06852e-160 0)
(6.71771e-159 2.63125e-159 0)
(3.54764e-158 1.36397e-158 0)
(1.60124e-157 6.04402e-158 0)
(6.53431e-157 2.42184e-157 0)
(2.55585e-156 9.30352e-157 0)
(7.61972e-156 2.725e-156 0)
(1.6486e-155 5.79578e-156 0)
(2.81596e-155 9.74012e-156 0)
(3.94491e-155 1.34394e-155 0)
(4.39163e-155 1.47551e-155 0)
(4.57358e-155 1.518e-155 0)
(4.52735e-155 1.48785e-155 0)
(4.05535e-155 1.32375e-155 0)
(3.1972e-155 1.04083e-155 0)
(2.05019e-155 6.69091e-156 0)
(7.2163e-156 2.37682e-156 0)
(-7.0567e-156 -2.36687e-156 0)
(-2.18874e-155 -7.56649e-156 0)
(-3.72774e-155 -1.3491e-155 0)
(-5.3451e-155 -2.06516e-155 0)
(-7.23255e-155 -3.05627e-155 0)
(-9.16212e-155 -4.34011e-155 0)
(-4.49924e-142 -2.38039e-142 0)
(1.75191e-127 8.78461e-128 0)
(0 0 0)
(0 0 0)
(0 0 0)
(0 0 0)
(0 0 0)
(0 0 0)
(0 0 0)
(0 0 0)
(0 0 0)
(0 0 0)
(0 0 0)
(-2.18663e-315 1.23065e-314 0)
(-2.9849e-311 4.54864e-310 0)
(4.38532e-307 9.44883e-306 0)
(1.95092e-302 1.22023e-301 0)
(2.5517e-298 9.28306e-298 0)
(1.58012e-294 4.04495e-294 0)
(5.14621e-291 1.01697e-290 0)
(9.71968e-288 1.57038e-287 0)
(1.23397e-284 1.69589e-284 0)
(1.03782e-281 1.25046e-281 0)
(4.38788e-279 4.74651e-279 0)
(-3.4183e-276 -3.37877e-276 0)
(-1.15394e-272 -1.05728e-272 0)
(-2.12017e-269 -1.81769e-269 0)
(-2.78466e-266 -2.26874e-266 0)
(-4.69302e-264 -3.64366e-264 0)
(3.6283e-262 2.76884e-262 0)
(3.40505e-259 2.53088e-259 0)
(1.0055e-256 7.45905e-257 0)
(1.10773e-254 8.13254e-255 0)
(1.56998e-252 1.14343e-252 0)
(-1.03779e-248 -7.48766e-249 0)
(-1.08259e-246 -7.72649e-247 0)
(5.55671e-244 3.91694e-244 0)
(1.4668e-241 1.02028e-241 0)
(-7.43433e-238 -5.10069e-238 0)
(-1.06407e-235 -7.19827e-236 0)
(1.5381e-233 1.02559e-233 0)
(5.48286e-231 3.60276e-231 0)
(-2.04183e-227 -1.32194e-227 0)
(-5.73238e-225 -3.65599e-225 0)
(1.2812e-221 8.04778e-222 0)
(3.62758e-219 2.2438e-219 0)
(-5.07401e-216 -3.08999e-216 0)
(-1.33944e-213 -8.02962e-214 0)
(9.90467e-211 5.84395e-211 0)
(1.88257e-209 1.09304e-209 0)
(1.06247e-207 6.06939e-208 0)
(9.77161e-208 5.49123e-208 0)
(-2.46132e-204 -1.3604e-204 0)
(-4.31498e-200 -2.34529e-200 0)
(-1.76178e-197 -9.41463e-198 0)
(2.22427e-195 1.16841e-195 0)
(9.80312e-194 5.06108e-194 0)
(2.78698e-190 1.41386e-190 0)
(2.12315e-187 1.05818e-187 0)
(-1.46092e-185 -7.15184e-186 0)
(-1.60274e-183 -7.70468e-184 0)
(-6.98848e-181 -3.29803e-181 0)
(-6.98316e-178 -3.23425e-178 0)
(-2.7877e-178 -1.26676e-178 0)
(2.54019e-174 1.1322e-174 0)
(-9.79192e-173 -4.27988e-173 0)
(-1.20867e-170 -5.17956e-171 0)
(-1.8966e-168 -7.96723e-169 0)
(-6.3949e-165 -2.63286e-165 0)
(2.22194e-163 8.96367e-164 0)
(7.82643e-162 3.09284e-162 0)
(1.12959e-160 4.37155e-161 0)
(1.01731e-159 3.85468e-160 0)
(6.70485e-159 2.48709e-159 0)
(3.5414e-158 1.28592e-158 0)
(1.59862e-157 5.68186e-158 0)
(6.52457e-157 2.26959e-157 0)
(2.55333e-156 8.69148e-157 0)
(7.62268e-156 2.53906e-156 0)
(1.65122e-155 5.38299e-156 0)
(2.8241e-155 9.01401e-156 0)
(3.96296e-155 1.23905e-155 0)
(4.4192e-155 1.35428e-155 0)
(4.60623e-155 1.38482e-155 0)
(4.56677e-155 1.3488e-155 0)
(4.0997e-155 1.19195e-155 0)
(3.24287e-155 9.30634e-156 0)
(2.09191e-155 5.94658e-156 0)
(7.55646e-156 2.1376e-156 0)
(-6.97494e-156 -1.97569e-156 0)
(-2.17957e-155 -6.23466e-156 0)
(-3.81898e-155 -1.11551e-155 0)
(-5.66096e-155 -1.70973e-155 0)
(-7.36969e-155 -2.32962e-155 0)
(-8.36877e-155 -2.78184e-155 0)
(-3.10306e-142 -1.04082e-142 0)
(9.8291e-128 2.62112e-128 0)
(0 0 0)
(0 0 0)
(0 0 0)
(0 0 0)
(0 0 0)
(0 0 0)
(0 0 0)
(0 0 0)
(0 0 0)
(0 0 0)
(0 0 0)
(1.09501e-314 -6.23226e-314 0)
(1.55934e-311 -2.46613e-310 0)
(2.47267e-307 5.01803e-306 0)
(1.94203e-302 1.18919e-301 0)
(3.79937e-298 1.36182e-297 0)
(3.78117e-294 9.55777e-294 0)
(2.16135e-290 4.22078e-290 0)
(7.55492e-287 1.20631e-286 0)
(1.62274e-283 2.2032e-283 0)
(2.19983e-280 2.61669e-280 0)
(2.02672e-277 2.16247e-277 0)
(1.31228e-274 1.27821e-274 0)
(6.21975e-272 5.61127e-272 0)
(1.48096e-269 1.24998e-269 0)
(-1.63097e-266 -1.30755e-266 0)
(-4.54714e-265 -3.48278e-265 0)
(9.56116e-262 7.17395e-262 0)
(4.16912e-259 3.05431e-259 0)
(1.05742e-256 7.68798e-257 0)
(1.11535e-254 8.02871e-255 0)
(1.57277e-252 1.12168e-252 0)
(-1.02822e-248 -7.25982e-249 0)
(-1.069e-246 -7.46373e-247 0)
(5.54324e-244 3.82237e-244 0)
(1.44237e-241 9.81476e-242 0)
(-7.35847e-238 -4.93831e-238 0)
(-1.06187e-235 -7.02499e-236 0)
(1.5592e-233 1.01653e-233 0)
(5.57644e-231 3.5819e-231 0)
(-2.02624e-227 -1.28199e-227 0)
(-5.71718e-225 -3.56211e-225 0)
(1.2693e-221 7.78607e-222 0)
(3.61682e-219 2.18383e-219 0)
(-5.03212e-216 -2.9902e-216 0)
(-1.3359e-213 -7.81073e-214 0)
(9.86124e-211 5.67189e-211 0)
(1.87642e-209 1.06148e-209 0)
(1.05933e-207 5.8927e-208 0)
(9.76568e-208 5.34071e-208 0)
(-2.43302e-204 -1.30786e-204 0)
(-4.29295e-200 -2.26775e-200 0)
(-1.76141e-197 -9.14155e-198 0)
(2.21215e-195 1.1277e-195 0)
(9.74772e-194 4.87979e-194 0)
(2.76221e-190 1.35761e-190 0)
(2.1211e-187 1.02327e-187 0)
(-1.45145e-185 -6.87105e-186 0)
(-1.59402e-183 -7.40238e-184 0)
(-6.94696e-181 -3.16355e-181 0)
(-6.97882e-178 -3.11531e-178 0)
(-2.85168e-178 -1.24736e-178 0)
(2.53771e-174 1.08729e-174 0)
(-9.7147e-173 -4.07569e-173 0)
(-1.19929e-170 -4.92531e-171 0)
(-1.88214e-168 -7.56434e-169 0)
(-6.38714e-165 -2.51128e-165 0)
(2.20054e-163 8.46105e-164 0)
(7.75505e-162 2.91467e-162 0)
(1.11964e-160 4.11137e-161 0)
(1.00868e-159 3.61725e-160 0)
(6.65011e-159 2.32819e-159 0)
(3.51348e-158 1.20047e-158 0)
(1.58638e-157 5.28795e-158 0)
(6.47519e-157 2.10467e-157 0)
(2.53562e-156 8.03212e-157 0)
(7.59297e-156 2.34295e-156 0)
(1.64907e-155 4.95512e-156 0)
(2.82678e-155 8.26936e-156 0)
(3.97613e-155 1.13211e-155 0)
(4.44697e-155 1.23199e-155 0)
(4.63901e-155 1.25031e-155 0)
(4.60995e-155 1.20898e-155 0)
(4.15384e-155 1.06044e-155 0)
(3.30458e-155 8.21762e-156 0)
(2.15796e-155 5.23307e-156 0)
(8.05921e-156 1.90888e-156 0)
(-5.66095e-156 -1.31177e-156 0)
(-2.63331e-155 -5.98275e-156 0)
(-2.7534e-155 -6.15483e-156 0)
(-4.81279e-155 -1.06002e-155 0)
(-5.28464e-154 -1.13946e-154 0)
(-6.60423e-154 -1.36652e-154 0)
(-8.76583e-143 -1.61135e-143 0)
(2.5876e-128 3.05355e-129 0)
(0 0 0)
(0 0 0)
(0 0 0)
(0 0 0)
(0 0 0)
(0 0 0)
(0 0 0)
(0 0 0)
(0 0 0)
(0 0 0)
(0 0 0)
(1.51656e-314 -8.72986e-314 0)
(1.57181e-310 -2.58345e-309 0)
(-2.09498e-306 -4.01812e-305 0)
(-5.87542e-302 -3.52384e-301 0)
(-4.20815e-298 -1.48638e-297 0)
(-1.92558e-295 -4.80676e-295 0)
(1.21867e-290 2.35201e-290 0)
(7.27296e-287 1.14775e-286 0)
(2.32855e-283 3.12349e-283 0)
(4.95323e-280 5.81736e-280 0)
(7.17023e-277 7.54801e-277 0)
(7.35119e-274 7.05921e-274 0)
(5.40369e-271 4.80408e-271 0)
(2.95869e-268 2.46162e-268 0)
(9.3932e-266 7.42419e-266 0)
(3.4297e-263 2.59598e-263 0)
(6.56649e-261 4.85953e-261 0)
(1.07666e-258 7.79048e-259 0)
(1.39528e-256 9.97474e-257 0)
(1.15583e-254 8.17191e-255 0)
(1.29143e-252 9.04607e-253 0)
(-1.2806e-248 -8.87552e-249 0)
(-5.18258e-247 -3.54878e-247 0)
(6.19543e-244 4.18952e-244 0)
(1.17958e-241 7.87183e-242 0)
(-7.41996e-238 -4.88252e-238 0)
(-1.07311e-235 -6.95914e-236 0)
(2.13666e-233 1.36519e-233 0)
(7.53843e-231 4.74431e-231 0)
(-1.99792e-227 -1.23815e-227 0)
(-5.70408e-225 -3.47978e-225 0)
(1.26399e-221 7.5887e-222 0)
(3.62519e-219 2.14151e-219 0)
(-4.98237e-216 -2.8953e-216 0)
(-1.33449e-213 -7.62664e-214 0)
(9.71987e-211 5.46171e-211 0)
(1.84206e-209 1.01746e-209 0)
(1.07273e-207 5.82306e-208 0)
(9.14715e-208 4.8785e-208 0)
(-2.45028e-204 -1.28365e-204 0)
(-4.24662e-200 -2.18467e-200 0)
(-1.75481e-197 -8.86259e-198 0)
(2.18917e-195 1.08511e-195 0)
(9.6503e-194 4.69336e-194 0)
(2.74937e-190 1.3116e-190 0)
(2.13511e-187 9.98809e-188 0)
(-1.43078e-185 -6.5612e-186 0)
(-1.56506e-183 -7.03269e-184 0)
(-6.85429e-181 -3.01682e-181 0)
(-6.93657e-178 -2.98899e-178 0)
(-2.91864e-178 -1.23067e-178 0)
(2.52207e-174 1.04015e-174 0)
(-9.55309e-173 -3.85178e-173 0)
(-1.17965e-170 -4.64802e-171 0)
(-1.8509e-168 -7.12384e-169 0)
(-6.34381e-165 -2.38394e-165 0)
(2.1587e-163 7.91607e-164 0)
(7.61377e-162 2.72277e-162 0)
(1.09983e-160 3.8329e-161 0)
(9.91411e-160 3.36475e-160 0)
(6.54008e-159 2.16028e-159 0)
(3.45717e-158 1.11073e-158 0)
(1.56158e-157 4.87631e-158 0)
(6.37431e-157 1.93287e-157 0)
(2.49804e-156 7.34777e-157 0)
(7.51369e-156 2.14163e-156 0)
(1.63799e-155 4.51983e-156 0)
(2.81603e-155 7.51488e-156 0)
(3.97585e-155 1.02479e-155 0)
(4.46188e-155 1.10912e-155 0)
(4.65844e-155 1.11506e-155 0)
(4.64155e-155 1.0682e-155 0)
(4.20091e-155 9.27733e-156 0)
(3.36663e-155 7.11628e-156 0)
(2.23061e-155 4.50094e-156 0)
(8.97996e-156 1.72428e-156 0)
(-5.73472e-156 -1.04154e-156 0)
(-1.90143e-155 -3.23363e-156 0)
(-5.29322e-154 -8.31851e-155 0)
(7.43893e-154 1.05455e-154 0)
(1.44088e-149 1.74067e-150 0)
(-1.26089e-142 -1.15477e-143 0)
(4.72294e-128 2.40919e-129 0)
(-8.99891e-119 -3.38972e-121 0)
(0 0 0)
(0 0 0)
(0 0 0)
(0 0 0)
(0 0 0)
(0 0 0)
(0 0 0)
(0 0 0)
(0 0 0)
(0 0 0)
(-5.44575e-318 1.88294e-317 0)
(1.08389e-313 -6.31101e-313 0)
(1.70856e-309 -2.92284e-308 0)
(-3.17818e-305 -5.77861e-304 0)
(-1.10761e-300 -6.50925e-300 0)
(-1.23579e-296 -4.3023e-296 0)
(-6.92929e-293 -1.70844e-292 0)
(-2.20604e-289 -4.20823e-289 0)
(-4.20695e-286 -6.56236e-286 0)
(-4.7427e-283 -6.28627e-283 0)
(-2.28866e-280 -2.65449e-280 0)
(1.97176e-277 2.0485e-277 0)
(5.0776e-274 4.80943e-274 0)
(5.06327e-271 4.43891e-271 0)
(3.30325e-268 2.71102e-268 0)
(1.29872e-265 1.0124e-265 0)
(4.98709e-263 3.72588e-263 0)
(9.30515e-261 6.77702e-261 0)
(1.30887e-258 9.3173e-259 0)
(1.37513e-256 9.64818e-257 0)
(8.88017e-255 6.15927e-255 0)
(5.46687e-253 3.7562e-253 0)
(-1.26406e-248 -8.58706e-249 0)
(6.76072e-246 4.53489e-246 0)
(3.98312e-242 2.63821e-242 0)
(-9.17545e-242 -5.99663e-242 0)
(-9.35075e-238 -6.02417e-238 0)
(-9.77653e-235 -6.20569e-235 0)
(9.71201e-233 6.07248e-233 0)
(6.93784e-230 4.2717e-230 0)
(-2.04684e-227 -1.24055e-227 0)
(-5.83915e-225 -3.4824e-225 0)
(1.33555e-221 7.83568e-222 0)
(3.82983e-219 2.20996e-219 0)
(-5.09701e-216 -2.89196e-216 0)
(-1.36701e-213 -7.62416e-214 0)
(9.54836e-211 5.23314e-211 0)
(1.85152e-209 9.96906e-210 0)
(1.27881e-207 6.76263e-208 0)
(-7.29014e-207 -3.78534e-207 0)
(-3.21289e-204 -1.63754e-204 0)
(-4.16229e-200 -2.08169e-200 0)
(-1.73187e-197 -8.49649e-198 0)
(2.12938e-195 1.02441e-195 0)
(9.47099e-194 4.46653e-194 0)
(2.82929e-190 1.30757e-190 0)
(2.33435e-187 1.05683e-187 0)
(-1.40036e-185 -6.20815e-186 0)
(-1.5278e-183 -6.62936e-184 0)
(-6.67497e-181 -2.83343e-181 0)
(-6.8613e-178 -2.84763e-178 0)
(-3.02456e-178 -1.22657e-178 0)
(2.50104e-174 9.90484e-175 0)
(-9.31259e-173 -3.59952e-173 0)
(-1.15095e-170 -4.33946e-171 0)
(-1.80488e-168 -6.63418e-169 0)
(-6.26584e-165 -2.24392e-165 0)
(2.09952e-163 7.32002e-164 0)
(7.41323e-162 2.51411e-162 0)
(1.07169e-160 3.53197e-161 0)
(9.66883e-160 3.09368e-160 0)
(6.38399e-159 1.98127e-159 0)
(3.37747e-158 1.01571e-158 0)
(1.52657e-157 4.44335e-158 0)
(6.23261e-157 1.7533e-157 0)
(2.44463e-156 6.63544e-157 0)
(7.39032e-156 1.93214e-156 0)
(1.61786e-155 4.06687e-156 0)
(2.79186e-155 6.73387e-156 0)
(3.95956e-155 9.13972e-156 0)
(4.46491e-155 9.83204e-156 0)
(4.66474e-155 9.76553e-156 0)
(4.66254e-155 9.24273e-156 0)
(4.23695e-155 7.90973e-156 0)
(3.41246e-155 5.9535e-156 0)
(2.28214e-155 3.6864e-156 0)
(9.69684e-156 1.43325e-156 0)
(-5.43489e-156 -7.20204e-157 0)
(-1.7013e-155 -1.94739e-156 0)
(-1.72222e-154 -1.60044e-155 0)
(-9.13046e-143 -6.06362e-144 0)
(-1.06263e-132 -3.2686e-134 0)
(8.09388e-131 -1.4643e-132 0)
(3.43069e-125 -2.71729e-126 0)
(-3.24297e-118 3.95438e-119 0)
(0 0 0)
(0 0 0)
(0 0 0)
(0 0 0)
(0 0 0)
(0 0 0)
(0 0 0)
(0 0 0)
(0 0 0)
(0 0 0)
(6.46341e-317 -2.24738e-316 0)
(2.43462e-312 -1.43405e-311 0)
(2.64404e-308 -4.71545e-307 0)
(-4.92475e-304 -8.51188e-303 0)
(-1.58128e-299 -9.10953e-299 0)
(-1.69916e-295 -5.8317e-295 0)
(-9.44532e-292 -2.30043e-291 0)
(-3.11859e-288 -5.88069e-288 0)
(-6.69119e-285 -1.03182e-284 0)
(-9.97492e-282 -1.30663e-281 0)
(-1.08497e-278 -1.24298e-278 0)
(-8.90742e-276 -9.13544e-276 0)
(-5.61634e-273 -5.24882e-273 0)
(-2.76295e-270 -2.38919e-270 0)
(-1.09518e-267 -8.86513e-268 0)
(-3.47176e-265 -2.66687e-265 0)
(-7.90922e-263 -5.81812e-263 0)
(-1.52628e-260 -1.09069e-260 0)
(-2.38048e-258 -1.66103e-258 0)
(-3.15998e-256 -2.17193e-256 0)
(-6.47326e-254 -4.39837e-254 0)
(-6.50598e-250 -4.37354e-250 0)
(5.11484e-248 3.39685e-248 0)
(2.27775e-244 1.49366e-244 0)
(2.67845e-242 1.73403e-242 0)
(-3.03649e-240 -1.93895e-240 0)
(-5.23524e-237 -3.29424e-237 0)
(-2.04032e-234 -1.26466e-234 0)
(7.29973e-232 4.45594e-232 0)
(9.18026e-229 5.51661e-229 0)
(-2.87548e-227 -1.70024e-227 0)
(-7.3354e-225 -4.26627e-225 0)
(2.12455e-221 1.21508e-221 0)
(6.21878e-219 3.49661e-219 0)
(-6.48118e-216 -3.58148e-216 0)
(-1.75856e-213 -9.54724e-214 0)
(9.44767e-211 5.03748e-211 0)
(2.88089e-209 1.50816e-209 0)
(1.33923e-207 6.88154e-208 0)
(-5.07629e-205 -2.55943e-205 0)
(-1.09868e-203 -5.43352e-204 0)
(-3.84558e-200 -1.86473e-200 0)
(-1.6047e-197 -7.62644e-198 0)
(1.84436e-195 8.58778e-196 0)
(7.40818e-194 3.37821e-194 0)
(3.54167e-190 1.58109e-190 0)
(3.92377e-187 1.71412e-187 0)
(-1.33392e-185 -5.69972e-186 0)
(-1.53654e-183 -6.41833e-184 0)
(-6.40551e-181 -2.61408e-181 0)
(-6.77693e-178 -2.70018e-178 0)
(-3.3349e-178 -1.29636e-178 0)
(2.44315e-174 9.25892e-175 0)
(-9.0089e-173 -3.32612e-173 0)
(-1.11338e-170 -4.00184e-171 0)
(-1.74529e-168 -6.10261e-169 0)
(-6.15696e-165 -2.09264e-165 0)
(2.02369e-163 6.67937e-164 0)
(7.15784e-162 2.29161e-162 0)
(1.03597e-160 3.21312e-161 0)
(9.35749e-160 2.80802e-160 0)
(6.1854e-159 1.79351e-159 0)
(3.27581e-158 9.16511e-159 0)
(1.48172e-157 3.99327e-158 0)
(6.05156e-157 1.56772e-157 0)
(2.37549e-156 5.90122e-157 0)
(7.23052e-156 1.71795e-156 0)
(1.59064e-155 3.60433e-156 0)
(2.75537e-155 5.93395e-156 0)
(3.9261e-155 8.00052e-156 0)
(4.45286e-155 8.53931e-156 0)
(4.65311e-155 8.34438e-156 0)
(4.65782e-155 7.75053e-156 0)
(4.25232e-155 6.49391e-156 0)
(3.48596e-155 4.80676e-156 0)
(2.42821e-155 2.95621e-156 0)
(1.35828e-155 1.41504e-156 0)
(1.13711e-156 9.5888e-158 0)
(-3.52377e-156 -2.1292e-157 0)
(-2.7887e-153 -8.6425e-155 0)
(3.04004e-138 -1.72408e-140 0)
(-6.18118e-130 3.39858e-131 0)
(2.77145e-124 -3.43639e-125 0)
(2.07488e-124 -4.52787e-125 0)
(7.32056e-117 -2.27797e-117 0)
(9.24531e-24 -4.56661e-24 0)
(-7.67856e-22 3.9357e-22 0)
(-1.62782e-21 7.4016e-22 0)
(-2.23731e-21 9.06786e-22 0)
(-2.1845e-21 8.13013e-22 0)
(5.01197e-18 -1.77016e-18 0)
(3.03814e-16 -1.04725e-16 0)
(2.98391e-13 -1.02641e-13 0)
(1.31467e-11 -4.59955e-12 0)
(8.52344e-11 -3.0876e-11 0)
(4.06309e-10 -1.54872e-10 0)
(-7.99549e-05 3.25268e-05 0)
(-0.00198543 0.000873527 0)
(-0.00540518 0.00260527 0)
(-0.00911065 0.00486992 0)
(-0.0122707 0.00735444 0)
(-0.0141869 0.00962487 0)
(-0.0144975 0.0112178 0)
(-0.0135142 0.011985 0)
(1.82063e-22 -4.83339e-23 0)
(6.45995e-22 -2.1318e-22 0)
(1.86083e-21 -6.05957e-22 0)
(-1.58493e-18 4.93638e-19 0)
(-5.88385e-18 1.77044e-18 0)
(-5.16614e-17 1.5319e-17 0)
(-2.46115e-16 7.34874e-17 0)
(3.00059e-13 -9.17691e-14 0)
(1.22319e-11 -3.88907e-12 0)
(7.42308e-11 -2.48899e-11 0)
(3.57991e-10 -1.28193e-10 0)
(-7.33788e-05 2.8371e-05 0)
(-0.00193343 0.000815677 0)
(-0.00528823 0.00245949 0)
(-0.00891495 0.00461384 0)
(-0.0120047 0.00696961 0)
(-0.0138865 0.00910537 0)
(-0.0142193 0.0105848 0)
(-0.0133076 0.0112792 0)
(4.6908e-23 -5.60495e-24 0)
(1.50414e-22 -2.79302e-23 0)
(-3.18633e-19 6.66995e-20 0)
(-1.87018e-18 4.13542e-19 0)
(-3.24469e-18 7.48689e-19 0)
(7.43643e-15 -1.78781e-15 0)
(3.78149e-13 -9.53282e-14 0)
(1.48161e-11 -3.95413e-12 0)
(4.05002e-11 -1.15529e-11 0)
(5.33402e-11 -1.63988e-11 0)
(5.7851e-11 -1.93079e-11 0)
(-5.85537e-05 2.13699e-05 0)
(-0.00183448 0.000737749 0)
(-0.00510906 0.00228063 0)
(-0.00866437 0.00432007 0)
(-0.0117094 0.00655546 0)
(-0.013588 0.00857899 0)
(-0.013964 0.00997414 0)
(-0.0131217 0.010617 0)
(1.03936e-14 -6.9167e-17 0)
(-9.79883e-20 5.72798e-21 0)
(-1.91085e-19 1.95761e-20 0)
(-6.82894e-19 9.25895e-20 0)
(4.76806e-17 -7.74276e-18 0)
(3.51717e-16 -6.50841e-17 0)
(7.0375e-12 -1.45029e-12 0)
(5.78975e-11 -1.32087e-11 0)
(1.11848e-10 -2.82259e-11 0)
(1.21855e-10 -3.39935e-11 0)
(-1.57323e-09 4.85454e-10 0)
(-3.80667e-05 1.30311e-05 0)
(-0.00167885 0.000640192 0)
(-0.00486445 0.00207415 0)
(-0.00835869 0.00399729 0)
(-0.0113845 0.00612201 0)
(-0.0132887 0.00805348 0)
(-0.0137256 0.00938729 0)
(-0.0129509 0.00999356 0)
(7.31625e-14 8.57284e-15 0)
(-2.05228e-20 -1.35783e-21 0)
(-2.00418e-20 2.31869e-23 0)
(-2.5899e-20 1.41257e-21 0)
(-2.2783e-19 2.19498e-20 0)
(9.81468e-17 -1.28267e-17 0)
(9.14512e-12 -1.47078e-12 0)
(5.76388e-11 -1.09412e-11 0)
(1.02585e-10 -2.24954e-11 0)
(1.09807e-10 -2.74399e-11 0)
(-1.21006e-09 3.42016e-10 0)
(-1.46101e-05 4.65835e-06 0)
(-0.0014701 0.000528483 0)
(-0.00455679 0.00184633 0)
(-0.00800092 0.00365296 0)
(-0.0110305 0.00567542 0)
(-0.0129848 0.00753064 0)
(-0.0134961 0.00881947 0)
(-0.012787 0.00940008 0)
(3.38735e-14 1.02177e-14 0)
(-6.16277e-18 -1.2197e-18 0)
(-2.65131e-21 -2.55712e-22 0)
(-2.64532e-21 -5.89534e-23 0)
(-6.35073e-21 2.11643e-22 0)
(3.21589e-17 -2.51366e-18 0)
(5.96844e-13 -6.9654e-14 0)
(1.62555e-11 -2.47198e-12 0)
(1.44662e-10 -2.69417e-11 0)
(8.75703e-10 -1.93114e-10 0)
(1.41284e-09 -3.6209e-10 0)
(-6.53175e-08 1.92551e-08 0)
(-0.00121596 0.000409614 0)
(-0.00419828 0.0016081 0)
(-0.00760389 0.00329983 0)
(-0.0106576 0.00522765 0)
(-0.0126809 0.00701818 0)
(-0.0132722 0.00827078 0)
(-0.0126232 0.00883069 0)
(-0.0120145 0.0122096 0)
(-0.00861321 0.00999431 0)
(-0.00474657 0.00625644 0)
(-0.00192546 0.00286296 0)
(-0.00049753 0.000827925 0)
(-9.67018e-05 0.000178595 0)
(-1.44035e-05 2.92743e-05 0)
(-1.06921e-06 2.37143e-06 0)
(1.25972e-08 -3.02392e-08 0)
(3.5616e-10 -9.17973e-10 0)
(7.78382e-12 -2.13769e-11 0)
(-1.25244e-13 3.63833e-13 0)
(-7.45544e-14 2.27503e-13 0)
(-3.9484e-12 1.25722e-11 0)
(-3.79076e-11 1.25153e-10 0)
(-2.95342e-10 1.00495e-09 0)
(-1.83432e-09 6.39615e-09 0)
(-9.83004e-09 3.49373e-08 0)
(-4.72879e-08 1.70444e-07 0)
(-2.04542e-07 7.44143e-07 0)
(-8.05923e-07 2.94637e-06 0)
(-2.91234e-06 1.06549e-05 0)
(-9.86991e-06 3.59951e-05 0)
(-3.30664e-05 0.000119768 0)
(-9.79908e-05 0.000351279 0)
(-0.000273364 0.000966674 0)
(-0.000725252 0.00252185 0)
(-0.00184034 0.00627312 0)
(-0.00447416 0.0149055 0)
(-0.010425 0.0338431 0)
(-0.0233344 0.0735959 0)
(-0.0504722 0.15419 0)
(-0.10632 0.313624 0)
(-0.219447 0.623004 0)
(-0.444766 1.21106 0)
(-0.884061 2.3005 0)
(-1.71757 4.25566 0)
(-3.24326 7.62503 0)
(-5.90083 13.1267 0)
(-10.2267 21.4942 0)
(-16.6661 33.1155 0)
(-25.2185 47.5228 0)
(-35.0949 63.0635 0)
(-44.846 77.356 0)
(-53.1806 88.6319 0)
(-59.6565 96.6171 0)
(-64.3372 101.764 0)
(-67.3203 104.452 0)
(-68.8717 105.222 0)
(-69.2736 104.568 0)
(-68.7814 102.896 0)
(-67.605 100.518 0)
(-65.9101 97.6639 0)
(-63.8291 94.505 0)
(-61.4683 91.1717 0)
(-58.9117 87.762 0)
(-56.2198 84.3421 0)
(-53.4346 80.9536 0)
(-50.5929 77.6346 0)
(-47.7108 74.3957 0)
(-44.7953 71.2344 0)
(-41.8517 68.1459 0)
(-38.8825 65.1223 0)
(-35.8924 62.1588 0)
(-32.8863 59.2506 0)
(-29.8662 56.391 0)
(-26.8367 53.5748 0)
(-23.8015 50.796 0)
(-20.7646 48.0488 0)
(-17.7318 45.3289 0)
(-14.7059 42.6288 0)
(-11.6933 39.9427 0)
(-8.69994 37.2648 0)
(-5.73265 34.5886 0)
(-2.80005 31.9078 0)
(0.0907021 29.2136 0)
(2.928 26.4992 0)
(5.69918 23.7567 0)
(8.38912 20.9772 0)
(10.9785 18.1525 0)
(13.4466 15.272 0)
(15.7652 12.3273 0)
(17.8996 9.31011 0)
(19.8066 6.21291 0)
(21.4297 3.0326 0)
(22.6992 -0.231079 0)
(23.5243 -3.56504 0)
(23.7927 -6.93816 0)
(23.3689 -10.2943 0)
(22.1017 -13.5313 0)
(19.8452 -16.4864 0)
(16.5316 -18.9408 0)
(12.2652 -20.6677 0)
(7.33683 -21.4818 0)
(2.20384 -21.3154 0)
(-2.63398 -20.0763 0)
(-6.39141 -16.8907 0)
(-0.01191 0.011478 0)
(-0.00861413 0.00940129 0)
(-0.00479191 0.00589293 0)
(-0.0019615 0.00270062 0)
(-0.000510671 0.000781513 0)
(-0.000100139 0.000169052 0)
(-1.5019e-05 2.7754e-05 0)
(-1.12127e-06 2.25063e-06 0)
(1.34358e-08 -2.90722e-08 0)
(3.7892e-10 -8.77433e-10 0)
(8.32126e-12 -2.04778e-11 0)
(-1.36599e-13 3.54885e-13 0)
(-8.185e-14 2.23075e-13 0)
(-4.38619e-12 1.24646e-11 0)
(-4.21611e-11 1.24205e-10 0)
(-3.28807e-10 9.98629e-10 0)
(-2.04282e-09 6.36281e-09 0)
(-1.09464e-08 3.47932e-08 0)
(-5.26375e-08 1.69942e-07 0)
(-2.27516e-07 7.42842e-07 0)
(-8.95228e-07 2.94382e-06 0)
(-3.22854e-06 1.06509e-05 0)
(-1.09213e-05 3.60135e-05 0)
(-3.64904e-05 0.000119858 0)
(-0.000107708 0.000351226 0)
(-0.000299195 0.000965521 0)
(-0.000790219 0.00251586 0)
(-0.00199568 0.00624978 0)
(-0.00482715 0.0148261 0)
(-0.0111836 0.0335908 0)
(-0.0248744 0.0728509 0)
(-0.0534273 0.152131 0)
(-0.111673 0.308228 0)
(-0.22851 0.60947 0)
(-0.458712 1.17849 0)
(-0.902229 2.22553 0)
(-1.73314 4.0918 0)
(-3.23469 7.2889 0)
(-5.81948 12.4912 0)
(-9.98787 20.4094 0)
(-16.1618 31.4838 0)
(-24.3746 45.427 0)
(-33.9686 60.8869 0)
(-43.6665 75.7276 0)
(-52.2155 88.1044 0)
(-59.0432 97.4037 0)
(-64.095 103.82 0)
(-67.4392 107.653 0)
(-69.3145 109.399 0)
(-69.9958 109.551 0)
(-69.7389 108.534 0)
(-68.758 106.682 0)
(-67.2229 104.245 0)
(-65.2692 101.415 0)
(-63.0053 98.334 0)
(-60.518 95.1144 0)
(-57.8705 91.8327 0)
(-55.1066 88.5384 0)
(-52.2655 85.2765 0)
(-49.3708 82.0707 0)
(-46.4351 78.9277 0)
(-43.4674 75.848 0)
(-40.4723 72.8275 0)
(-37.4564 69.8639 0)
(-34.4252 66.9534 0)
(-31.3819 64.0913 0)
(-28.3313 61.2732 0)
(-25.2778 58.4938 0)
(-22.2254 55.7476 0)
(-19.1802 53.0305 0)
(-16.145 50.3352 0)
(-13.1262 47.656 0)
(-10.1303 44.9875 0)
(-7.16427 42.3235 0)
(-4.23719 39.6577 0)
(-1.35676 36.982 0)
(1.46469 34.2899 0)
(4.21335 31.5739 0)
(6.87265 28.8259 0)
(9.42204 26.0408 0)
(11.8389 23.2094 0)
(14.0929 20.3261 0)
(16.1459 17.3837 0)
(17.9499 14.3775 0)
(19.4429 11.3078 0)
(20.5489 8.1795 0)
(21.1711 5.01174 0)
(21.1923 1.84333 0)
(20.4787 -1.25979 0)
(18.9017 -4.18435 0)
(16.3803 -6.76233 0)
(12.9854 -8.7852 0)
(9.00216 -10.0574 0)
(4.88211 -10.4606 0)
(1.14647 -10.0096 0)
(-1.7571 -8.72752 0)
(-3.25384 -6.34298 0)
(-0.0118114 0.0107991 0)
(-0.00859793 0.00884325 0)
(-0.00480427 0.00553127 0)
(-0.00196984 0.00252342 0)
(-0.000511515 0.000724258 0)
(-0.000100652 0.000156425 0)
(-1.50949e-05 2.55654e-05 0)
(-1.1254e-06 2.06232e-06 0)
(1.39466e-08 -2.74603e-08 0)
(3.85041e-10 -8.09112e-10 0)
(8.47481e-12 -1.88851e-11 0)
(-1.46308e-13 3.43639e-13 0)
(-8.8731e-14 2.18388e-13 0)
(-4.89727e-12 1.25602e-11 0)
(-4.70982e-11 1.252e-10 0)
(-3.67914e-10 1.00849e-09 0)
(-2.28772e-09 6.43492e-09 0)
(-1.22547e-08 3.52093e-08 0)
(-5.88136e-08 1.71857e-07 0)
(-2.52841e-07 7.48342e-07 0)
(-9.88202e-07 2.95113e-06 0)
(-3.53904e-06 1.06251e-05 0)
(-1.19749e-05 3.60177e-05 0)
(-3.96075e-05 0.000118955 0)
(-0.000115951 0.000346626 0)
(-0.00031877 0.000945618 0)
(-0.000830956 0.00243883 0)
(-0.00206413 0.00597657 0)
(-0.00489103 0.0139314 0)
(-0.0110552 0.0308908 0)
(-0.0238803 0.0652759 0)
(-0.0495596 0.132152 0)
(-0.0996128 0.258384 0)
(-0.19533 0.491446 0)
(-0.374647 0.911666 0)
(-0.702754 1.6493 0)
(-1.28722 2.90609 0)
(-2.29672 4.97752 0)
(-3.97804 8.26624 0)
(-6.6616 13.2745 0)
(-10.728 20.538 0)
(-16.4639 30.3886 0)
(-23.7913 42.5405 0)
(-32.1729 56.0168 0)
(-40.8114 69.5288 0)
(-48.7667 81.6435 0)
(-55.3607 91.4157 0)
(-60.3682 98.6368 0)
(-63.8308 103.494 0)
(-65.9249 106.347 0)
(-66.8731 107.597 0)
(-66.8946 107.61 0)
(-66.1764 106.686 0)
(-64.8764 105.064 0)
(-63.1257 102.938 0)
(-61.0339 100.464 0)
(-58.687 97.7623 0)
(-56.1461 94.9133 0)
(-53.4585 91.9772 0)
(-50.6605 88.9985 0)
(-47.782 86.0115 0)
(-44.845 83.0383 0)
(-41.864 80.0909 0)
(-38.8519 77.1783 0)
(-35.8183 74.3032 0)
(-32.7688 71.4653 0)
(-29.711 68.6645 0)
(-26.6508 65.8992 0)
(-23.5934 63.1653 0)
(-20.5448 60.4591 0)
(-17.5089 57.7741 0)
(-14.4923 55.1048 0)
(-11.502 52.4468 0)
(-8.54564 49.7938 0)
(-5.63275 47.1406 0)
(-2.77166 44.4796 0)
(0.0246617 41.8045 0)
(2.74157 39.1092 0)
(5.36233 36.3883 0)
(7.86556 33.6344 0)
(10.2272 30.8375 0)
(12.4145 27.9907 0)
(14.3865 25.085 0)
(16.0916 22.1128 0)
(17.4636 19.0703 0)
(18.4202 15.9552 0)
(18.859 12.7776 0)
(18.6604 9.56449 0)
(17.7009 6.36916 0)
(15.8891 3.2936 0)
(13.2303 0.497343 0)
(9.92561 -1.80727 0)
(6.36957 -3.41789 0)
(3.05206 -4.23022 0)
(0.406358 -4.29011 0)
(-1.31397 -3.72476 0)
(-1.89484 -2.57632 0)
(-0.0117139 0.0101636 0)
(-0.00855557 0.00830594 0)
(-0.00477914 0.00516573 0)
(-0.00194824 0.00233121 0)
(-0.000499936 0.000658139 0)
(-9.83279e-05 0.000141488 0)
(-1.46533e-05 2.28933e-05 0)
(-1.08397e-06 1.82646e-06 0)
(1.41256e-08 -2.55027e-08 0)
(3.74745e-10 -7.20426e-10 0)
(8.24581e-12 -1.67801e-11 0)
(-1.54295e-13 3.30506e-13 0)
(-9.51737e-14 2.13435e-13 0)
(-5.53991e-12 1.29393e-11 0)
(-5.31999e-11 1.28767e-10 0)
(-4.14595e-10 1.03495e-09 0)
(-2.55481e-09 6.5475e-09 0)
(-1.35179e-08 3.54144e-08 0)
(-6.40518e-08 1.70842e-07 0)
(-2.7268e-07 7.37649e-07 0)
(-1.05425e-06 2.88203e-06 0)
(-3.72622e-06 1.02586e-05 0)
(-1.25957e-05 3.4808e-05 0)
(-4.01202e-05 0.000110939 0)
(-0.000112667 0.000310792 0)
(-0.000293796 0.000806108 0)
(-0.000720135 0.00195974 0)
(-0.00166895 0.0044922 0)
(-0.00366359 0.00972674 0)
(-0.00762514 0.0199152 0)
(-0.015099 0.0386902 0)
(-0.028655 0.0718481 0)
(-0.0525266 0.12853 0)
(-0.0933914 0.222431 0)
(-0.161589 0.373632 0)
(-0.272588 0.610418 0)
(-0.449594 0.972994 0)
(-0.729272 1.5229 0)
(-1.17468 2.36538 0)
(-1.91 3.71062 0)
(-3.20021 6.00999 0)
(-5.55889 10.1253 0)
(-9.63599 17.0969 0)
(-15.594 27.0778 0)
(-22.9441 39.1672 0)
(-31.1114 52.4252 0)
(-39.2541 65.5223 0)
(-46.6019 77.2848 0)
(-52.6213 86.931 0)
(-57.1206 94.2228 0)
(-60.1718 99.328 0)
(-61.944 102.549 0)
(-62.6441 104.23 0)
(-62.4686 104.689 0)
(-61.5957 104.203 0)
(-60.1791 103.009 0)
(-58.3483 101.303 0)
(-56.2021 99.2326 0)
(-53.8153 96.9045 0)
(-51.2436 94.3966 0)
(-48.5339 91.7731 0)
(-45.723 89.0818 0)
(-42.8363 86.3542 0)
(-39.8949 83.6139 0)
(-36.9149 80.8754 0)
(-33.9063 78.1457 0)
(-30.8801 75.4315 0)
(-27.8451 72.7357 0)
(-24.8089 70.0586 0)
(-21.7793 67.3992 0)
(-18.7615 64.7535 0)
(-15.7636 62.1181 0)
(-12.7932 59.489 0)
(-9.8587 56.8612 0)
(-6.9706 54.2302 0)
(-4.13778 51.5886 0)
(-1.37409 48.9291 0)
(1.30467 46.2461 0)
(3.88026 43.5309 0)
(6.32917 40.7742 0)
(8.6243 37.9623 0)
(10.7279 35.0813 0)
(12.593 32.116 0)
(14.1605 29.0494 0)
(15.3549 25.8654 0)
(16.0841 22.5476 0)
(16.239 19.0908 0)
(15.7042 15.5099 0)
(14.3879 11.8609 0)
(12.2764 8.27159 0)
(9.51862 4.96214 0)
(6.47454 2.22013 0)
(3.61511 0.277721 0)
(1.36432 -0.797925 0)
(-0.0600764 -1.1415 0)
(-0.688124 -0.999084 0)
(-0.659388 -0.590072 0)
(-0.0116106 0.00955983 0)
(-0.00847709 0.00777628 0)
(-0.00471073 0.0047904 0)
(-0.00189442 0.00212385 0)
(-0.000476647 0.000585679 0)
(-9.33957e-05 0.000125005 0)
(-1.37561e-05 1.99287e-05 0)
(-1.00402e-06 1.56446e-06 0)
(1.39764e-08 -2.32808e-08 0)
(3.49733e-10 -6.19142e-10 0)
(7.69235e-12 -1.43937e-11 0)
(-1.60684e-13 3.16132e-13 0)
(-1.00965e-13 2.07806e-13 0)
(-6.29152e-12 1.34806e-11 0)
(-5.90267e-11 1.31047e-10 0)
(-4.50529e-10 1.03172e-09 0)
(-2.73169e-09 6.42495e-09 0)
(-1.42362e-08 3.42511e-08 0)
(-6.59352e-08 1.61652e-07 0)
(-2.70328e-07 6.72934e-07 0)
(-9.91441e-07 2.49736e-06 0)
(-3.37364e-06 8.57092e-06 0)
(-1.07415e-05 2.7438e-05 0)
(-3.01245e-05 7.71367e-05 0)
(-7.53384e-05 0.00019282 0)
(-0.000174491 0.000445124 0)
(-0.000376113 0.000953691 0)
(-0.000755709 0.00189961 0)
(-0.00141229 0.00351009 0)
(-0.00244122 0.00598362 0)
(-0.00387028 0.00933169 0)
(-0.00569158 0.0134654 0)
(-0.00780641 0.0180772 0)
(-0.00990019 0.0223853 0)
(-0.0114236 0.0251625 0)
(-0.0117388 0.0251354 0)
(-0.010568 0.0219579 0)
(-0.00883585 0.0177931 0)
(-0.0105149 0.0205131 0)
(-0.0232206 0.0439141 0)
(-0.0682579 0.125372 0)