/*--------------------------------*- C++ -*----------------------------------*\
  =========                 |
  \\      /  F ield         | OpenFOAM: The Open Source CFD Toolbox
   \\    /   O peration     | Website:  https://openfoam.org
    \\  /    A nd           | Version:  7
     \\/     M anipulation  |
\*---------------------------------------------------------------------------*/
FoamFile
{
    version     2.0;
    format      ascii;
    class       volVectorField;
    location    "0";
    object      Fc;
}
// * * * * * * * * * * * * * * * * * * * * * * * * * * * * * * * * * * * * * //

dimensions      [1 -2 -2 0 0 0 0];

internalField   nonuniform List<vector> 
58002
(
(0 0 0)
(0 0 0)
(0 0 0)
(0 0 0)
(0 0 0)
(0 0 0)
(0 0 0)
(0 0 0)
(0 0 0)
(0 0 0)
(0 0 0)
(-1.86971e-318 -8.97189e-317 0)
(-3.36681e-313 -2.34419e-312 0)
(-1.4286e-308 -5.29641e-308 0)
(-3.12906e-304 -7.79739e-304 0)
(-4.09826e-300 -7.61327e-300 0)
(-3.42331e-296 -5.03193e-296 0)
(-1.91869e-292 -2.32536e-292 0)
(-7.52053e-289 -7.75279e-289 0)
(-2.13483e-285 -1.9206e-285 0)
(-4.53296e-282 -3.63693e-282 0)
(-7.53881e-279 -5.49288e-279 0)
(-1.0553e-275 -7.0944e-276 0)
(-1.35254e-272 -8.4772e-273 0)
(-1.76207e-269 -1.03852e-269 0)
(-1.83762e-266 -1.03271e-266 0)
(-3.81836e-264 -2.0379e-264 0)
(1.33046e-262 7.01265e-263 0)
(9.8527e-260 5.02218e-260 0)
(1.96805e-257 1.00596e-257 0)
(1.15836e-255 5.83468e-256 0)
(4.79611e-253 2.40656e-253 0)
(-7.58396e-250 -3.77411e-250 0)
(-3.12817e-247 -1.54108e-247 0)
(3.55936e-245 1.7339e-245 0)
(3.9371e-242 1.89478e-242 0)
(-4.22986e-239 -2.01016e-239 0)
(-2.68353e-236 -1.25886e-236 0)
(7.26571e-235 3.36361e-235 0)
(1.28134e-231 5.85227e-232 0)
(-8.83065e-229 -3.97827e-229 0)
(-1.2449e-225 -5.53095e-226 0)
(4.77519e-223 2.09202e-223 0)
(7.29249e-220 3.14983e-220 0)
(-1.61413e-217 -6.87271e-218 0)
(-2.48333e-214 -1.04215e-214 0)
(2.73035e-212 1.12921e-212 0)
(6.32292e-211 2.57675e-211 0)
(4.93683e-209 1.98221e-209 0)
(5.08889e-208 2.01285e-208 0)
(-4.78742e-206 -1.86516e-206 0)
(-7.42751e-202 -2.84997e-202 0)
(-2.35438e-198 -8.89614e-199 0)
(2.83457e-197 1.05463e-197 0)
(1.49423e-195 5.47335e-196 0)
(3.13826e-192 1.13162e-192 0)
(2.26721e-188 8.04658e-189 0)
(-9.51495e-188 -3.32347e-188 0)
(-1.4118e-185 -4.85262e-186 0)
(-5.06006e-183 -1.71143e-183 0)
(-1.14316e-179 -3.80437e-180 0)
(-1.73542e-178 -5.68259e-179 0)
(1.80314e-175 5.80928e-176 0)
(-5.95791e-176 -1.88858e-176 0)
(-4.47282e-173 -1.39498e-173 0)
(-5.47021e-171 -1.6786e-171 0)
(-3.25602e-166 -9.8315e-167 0)
(-1.73469e-166 -5.15474e-167 0)
(1.5686e-164 4.58817e-165 0)
(2.83829e-163 8.17408e-164 0)
(3.05696e-162 8.67077e-163 0)
(2.39514e-161 6.69307e-162 0)
(1.48503e-160 4.08993e-161 0)
(7.67165e-160 2.08337e-160 0)
(3.42727e-159 9.18355e-160 0)
(1.36554e-158 3.61359e-159 0)
(4.99524e-158 1.30692e-158 0)
(1.73243e-157 4.48712e-158 0)
(5.97595e-157 1.53456e-157 0)
(2.00685e-156 5.11846e-157 0)
(5.28339e-156 1.34147e-156 0)
(1.11557e-155 2.8281e-156 0)
(1.98922e-155 5.05352e-156 0)
(3.10991e-155 7.95233e-156 0)
(4.37086e-155 1.13114e-155 0)
(5.59489e-155 1.47546e-155 0)
(6.33145e-155 1.71632e-155 0)
(6.84126e-155 1.92731e-155 0)
(7.38731e-155 2.19305e-155 0)
(7.90516e-155 2.51558e-155 0)
(8.33135e-155 2.90134e-155 0)
(9.04313e-155 3.53213e-155 0)
(9.07156e-155 4.0682e-155 0)
(-9.35207e-130 -4.78787e-130 0)
(3.73499e-115 1.848e-115 0)
(0 0 0)
(0 0 0)
(0 0 0)
(0 0 0)
(0 0 0)
(0 0 0)
(0 0 0)
(0 0 0)
(0 0 0)
(0 0 0)
(0 0 0)
(3.17898e-316 1.39895e-314 0)
(6.01362e-311 4.12748e-310 0)
(2.04384e-306 7.51167e-306 0)
(2.98121e-302 7.37755e-302 0)
(2.04592e-298 3.77651e-298 0)
(6.73219e-295 9.83235e-295 0)
(1.28404e-291 1.54556e-291 0)
(1.33948e-288 1.37038e-288 0)
(3.99908e-287 3.56694e-287 0)
(-2.81075e-282 -2.23312e-282 0)
(-6.45543e-279 -4.65099e-279 0)
(-9.99896e-276 -6.63709e-276 0)
(-1.32948e-272 -8.21437e-273 0)
(-1.75405e-269 -1.01806e-269 0)
(-1.83503e-266 -1.01379e-266 0)
(-3.80862e-264 -2.00183e-264 0)
(1.33692e-262 6.90206e-263 0)
(9.85374e-260 4.94266e-260 0)
(1.96212e-257 9.81717e-258 0)
(1.15511e-255 5.70971e-256 0)
(4.79072e-253 2.34977e-253 0)
(-7.56812e-250 -3.67867e-250 0)
(-3.12501e-247 -1.50363e-247 0)
(3.55091e-245 1.6894e-245 0)
(3.93259e-242 1.84771e-242 0)
(-4.22065e-239 -1.95758e-239 0)
(-2.68034e-236 -1.22684e-236 0)
(7.23727e-235 3.26788e-235 0)
(1.27835e-231 5.69215e-232 0)
(-8.80713e-229 -3.86631e-229 0)
(-1.24299e-225 -5.3788e-226 0)
(4.7628e-223 2.03119e-223 0)
(7.2816e-220 3.05982e-220 0)
(-1.60967e-217 -6.66353e-218 0)
(-2.47936e-214 -1.01094e-214 0)
(2.72165e-212 1.09287e-212 0)
(6.30318e-211 2.49215e-211 0)
(4.9248e-209 1.91691e-209 0)
(5.08223e-208 1.9471e-208 0)
(-4.77353e-206 -1.79975e-206 0)
(-7.40453e-202 -2.7469e-202 0)
(-2.3502e-198 -8.57732e-199 0)
(2.82413e-197 1.01382e-197 0)
(1.48911e-195 5.25716e-196 0)
(3.12833e-192 1.08592e-192 0)
(2.26348e-188 7.72389e-189 0)
(-9.47025e-188 -3.17623e-188 0)
(-1.40627e-185 -4.63483e-186 0)
(-5.04033e-183 -1.63221e-183 0)
(-1.13887e-179 -3.62311e-180 0)
(-1.73236e-178 -5.41359e-179 0)
(1.7998e-175 5.52396e-176 0)
(-5.84635e-176 -1.76213e-176 0)
(-4.45219e-173 -1.31763e-173 0)
(-5.44684e-171 -1.58263e-171 0)
(-3.24989e-166 -9.27015e-167 0)
(-1.74543e-166 -4.8876e-167 0)
(1.56005e-164 4.28865e-165 0)
(2.82367e-163 7.6211e-164 0)
(3.04153e-162 8.06037e-163 0)
(2.38327e-161 6.20196e-162 0)
(1.4778e-160 3.77663e-161 0)
(7.63498e-160 1.9165e-160 0)
(3.41118e-159 8.41323e-160 0)
(1.35923e-158 3.2957e-159 0)
(4.97237e-158 1.18611e-158 0)
(1.72447e-157 4.05035e-158 0)
(5.94807e-157 1.37688e-157 0)
(1.99946e-156 4.56709e-157 0)
(5.2734e-156 1.19054e-156 0)
(1.11515e-155 2.49394e-156 0)
(1.99207e-155 4.42558e-156 0)
(3.12004e-155 6.9088e-156 0)
(4.39488e-155 9.74115e-156 0)
(5.64189e-155 1.25869e-155 0)
(6.41502e-155 1.4506e-155 0)
(6.95564e-155 1.60783e-155 0)
(7.55187e-155 1.80415e-155 0)
(8.13241e-155 2.03494e-155 0)
(8.7453e-155 2.32475e-155 0)
(9.1373e-155 2.61549e-155 0)
(2.31149e-144 7.15432e-145 0)
(-6.52152e-130 -2.08965e-130 0)
(2.10611e-115 5.48371e-116 0)
(0 0 0)
(0 0 0)
(0 0 0)
(0 0 0)
(0 0 0)
(0 0 0)
(0 0 0)
(0 0 0)
(0 0 0)
(0 0 0)
(0 0 0)
(-1.48405e-315 -6.02009e-314 0)
(2.48549e-312 1.67846e-311 0)
(2.00622e-306 7.29432e-306 0)
(5.19318e-302 1.27354e-301 0)
(6.55895e-298 1.2004e-297 0)
(4.50328e-294 6.52063e-294 0)
(1.68436e-290 2.00908e-290 0)
(3.4144e-287 3.45884e-287 0)
(3.97826e-284 3.50982e-284 0)
(3.1454e-281 2.46867e-281 0)
(1.6852e-278 1.19759e-278 0)
(3.09204e-276 2.02122e-276 0)
(-7.37702e-273 -4.481e-273 0)
(-1.52282e-269 -8.67887e-270 0)
(-1.77388e-266 -9.60844e-267 0)
(-3.54412e-264 -1.82877e-264 0)
(1.51875e-262 7.67073e-263 0)
(1.0019e-259 4.92798e-260 0)
(1.96745e-257 9.61832e-258 0)
(1.14776e-255 5.55906e-256 0)
(4.78519e-253 2.29592e-253 0)
(-7.47002e-250 -3.5478e-250 0)
(-3.11827e-247 -1.46555e-247 0)
(3.51091e-245 1.63104e-245 0)
(3.92399e-242 1.79967e-242 0)
(-4.19086e-239 -1.89681e-239 0)
(-2.67257e-236 -1.19333e-236 0)
(7.19699e-235 3.1687e-235 0)
(1.27761e-231 5.54444e-232 0)
(-8.76972e-229 -3.75032e-229 0)
(-1.24101e-225 -5.22866e-226 0)
(4.73786e-223 1.96615e-223 0)
(7.26551e-220 2.96897e-220 0)
(-1.60184e-217 -6.4441e-218 0)
(-2.4748e-214 -9.79943e-215 0)
(2.70754e-212 1.05503e-212 0)
(6.27651e-211 2.40626e-211 0)
(4.87741e-209 1.83927e-209 0)
(5.07014e-208 1.8802e-208 0)
(-4.73776e-206 -1.72738e-206 0)
(-7.36192e-202 -2.63842e-202 0)
(-2.34514e-198 -8.25979e-199 0)
(2.80417e-197 9.70398e-198 0)
(1.4797e-195 5.02984e-196 0)
(3.10829e-192 1.03757e-192 0)
(2.25648e-188 7.39472e-189 0)
(-9.38699e-188 -3.01917e-188 0)
(-1.39646e-185 -4.40707e-186 0)
(-5.00386e-183 -1.54909e-183 0)
(-1.12979e-179 -3.43021e-180 0)
(-1.72798e-178 -5.14408e-179 0)
(1.79436e-175 5.23623e-176 0)
(-5.58379e-176 -1.59683e-176 0)
(-4.4105e-173 -1.2357e-173 0)
(-5.39529e-171 -1.48052e-171 0)
(-3.23732e-166 -8.69859e-167 0)
(-1.77302e-166 -4.66388e-167 0)
(1.54129e-164 3.96837e-165 0)
(2.79141e-163 7.03359e-164 0)
(3.00703e-162 7.41374e-163 0)
(2.35625e-161 5.68289e-162 0)
(1.46097e-160 3.44609e-161 0)
(7.54728e-160 1.74069e-160 0)
(3.37145e-159 7.6026e-160 0)
(1.34307e-158 2.9614e-159 0)
(4.91139e-158 1.0591e-158 0)
(1.70234e-157 3.59087e-158 0)
(5.8643e-157 1.21025e-157 0)
(1.97487e-156 3.98895e-157 0)
(5.21729e-156 1.03215e-156 0)
(1.10708e-155 2.14766e-156 0)
(1.98034e-155 3.77261e-156 0)
(3.11144e-155 5.83045e-156 0)
(4.39083e-155 8.11154e-156 0)
(5.66802e-155 1.03576e-155 0)
(6.4609e-155 1.17259e-155 0)
(7.01054e-155 1.26877e-155 0)
(7.56687e-155 1.37286e-155 0)
(8.16953e-155 1.49602e-155 0)
(8.95408e-155 1.66075e-155 0)
(9.76502e-155 1.82715e-155 0)
(3.55979e-145 6.59221e-146 0)
(-7.1992e-131 -1.22144e-131 0)
(4.27437e-116 4.78888e-117 0)
(0 0 0)
(0 0 0)
(0 0 0)
(0 0 0)
(0 0 0)
(0 0 0)
(0 0 0)
(0 0 0)
(0 0 0)
(0 0 0)
(0 0 0)
(-2.82005e-315 -1.06104e-313 0)
(-2.9576e-310 -1.96564e-309 0)
(-5.41527e-306 -1.94799e-305 0)
(-2.98391e-302 -7.25184e-302 0)
(2.36548e-298 4.29254e-298 0)
(3.99508e-294 5.73525e-294 0)
(2.42767e-290 2.86949e-290 0)
(8.90694e-287 8.93393e-287 0)
(2.04732e-283 1.7865e-283 0)
(3.06865e-280 2.37895e-280 0)
(2.90433e-277 2.03559e-277 0)
(1.88281e-274 1.21194e-274 0)
(8.32301e-272 4.97083e-272 0)
(2.20249e-269 1.23321e-269 0)
(-8.18952e-267 -4.3557e-267 0)
(-5.01251e-265 -2.54513e-265 0)
(4.32366e-262 2.14679e-262 0)
(1.2508e-259 6.05945e-260 0)
(2.07461e-257 9.94258e-258 0)
(1.15585e-255 5.47677e-256 0)
(4.72108e-253 2.21444e-253 0)
(-7.53588e-250 -3.49959e-250 0)
(-3.00889e-247 -1.38134e-247 0)
(3.51994e-245 1.59609e-245 0)
(3.85913e-242 1.72729e-242 0)
(-4.13709e-239 -1.82691e-239 0)
(-2.6638e-236 -1.15992e-236 0)
(7.35051e-235 3.15439e-235 0)
(1.30434e-231 5.51451e-232 0)
(-8.65396e-229 -3.60363e-229 0)
(-1.23386e-225 -5.05922e-226 0)
(4.66788e-223 1.88402e-223 0)
(7.22473e-220 2.86945e-220 0)
(-1.58046e-217 -6.17529e-218 0)
(-2.46111e-214 -9.45808e-215 0)
(2.68419e-212 1.01432e-212 0)
(6.22186e-211 2.31127e-211 0)
(4.86886e-209 1.77747e-209 0)
(5.06148e-208 1.81537e-208 0)
(-4.67086e-206 -1.64543e-206 0)
(-7.29332e-202 -2.52281e-202 0)
(-2.33851e-198 -7.94067e-199 0)
(2.77394e-197 9.24369e-198 0)
(1.46488e-195 4.78892e-196 0)
(3.06438e-192 9.82438e-193 0)
(2.24692e-188 7.06185e-189 0)
(-9.25341e-188 -2.84993e-188 0)
(-1.38258e-185 -4.17129e-186 0)
(-4.95106e-183 -1.46275e-183 0)
(-1.11681e-179 -3.22991e-180 0)
(-1.72277e-178 -4.87551e-179 0)
(1.78651e-175 4.9455e-176 0)
(-5.19866e-176 -1.40709e-176 0)
(-4.35012e-173 -1.15068e-173 0)
(-5.31986e-171 -1.37458e-171 0)
(-3.22019e-166 -8.1238e-167 0)
(-1.81513e-166 -4.46887e-167 0)
(1.51445e-164 3.63724e-165 0)
(2.74562e-163 6.42971e-164 0)
(2.95829e-162 6.75153e-163 0)
(2.31822e-161 5.15302e-162 0)
(1.43738e-160 3.1097e-161 0)
(7.42474e-160 1.56229e-160 0)
(3.31611e-159 6.78221e-160 0)
(1.32062e-158 2.62394e-159 0)
(4.82685e-158 9.31181e-159 0)
(1.67152e-157 3.12877e-158 0)
(5.75806e-157 1.04484e-157 0)
(1.93429e-156 3.39964e-157 0)
(5.15512e-156 8.7699e-157 0)
(1.09016e-155 1.79414e-156 0)
(1.96751e-155 3.1302e-156 0)
(3.05845e-155 4.69831e-156 0)
(4.50405e-155 6.67213e-156 0)
(5.48523e-155 7.82901e-156 0)
(6.69416e-155 9.19212e-156 0)
(8.45919e-155 1.11206e-155 0)
(9.0499e-155 1.12993e-155 0)
(-5.3753e-154 -6.30713e-155 0)
(4.25564e-152 4.57539e-153 0)
(-6.05859e-148 -5.61699e-149 0)
(6.36529e-142 4.46146e-143 0)
(-7.97841e-128 -2.93942e-129 0)
(3.45624e-115 -7.62883e-118 0)
(0 0 0)
(0 0 0)
(0 0 0)
(0 0 0)
(0 0 0)
(0 0 0)
(0 0 0)
(0 0 0)
(0 0 0)
(0 0 0)
(-1.37235e-318 1.42839e-317 0)
(-1.83793e-314 -6.44806e-313 0)
(-3.34712e-309 -2.18982e-308 0)
(-9.76313e-305 -3.47508e-304 0)
(-1.24083e-300 -2.98871e-300 0)
(-7.96616e-297 -1.4334e-296 0)
(-2.68484e-293 -3.82139e-293 0)
(-4.45269e-290 -5.21546e-290 0)
(-7.16571e-288 -7.1165e-288 0)
(1.36255e-283 1.17595e-283 0)
(3.3311e-280 2.55078e-280 0)
(4.9696e-277 3.43541e-277 0)
(4.98232e-274 3.15877e-274 0)
(3.42915e-271 2.01497e-271 0)
(1.68536e-268 9.28241e-269 0)
(4.40745e-266 2.30647e-266 0)
(1.43229e-263 7.17155e-264 0)
(2.18794e-261 1.07067e-261 0)
(2.66413e-259 1.27281e-259 0)
(2.47042e-257 1.16336e-257 0)
(1.14617e-255 5.3242e-256 0)
(4.33552e-253 1.99351e-253 0)
(-1.20711e-249 -5.49664e-250 0)
(-1.84383e-247 -8.28906e-248 0)
(4.32413e-244 1.91858e-244 0)
(3.52197e-242 1.5423e-242 0)
(-4.2153e-239 -1.82061e-239 0)
(-3.99312e-236 -1.69961e-236 0)
(1.00059e-234 4.19483e-235 0)
(2.20243e-231 9.09211e-232 0)
(-8.48701e-229 -3.4491e-229 0)
(-1.22821e-225 -4.91191e-226 0)
(4.64061e-223 1.8256e-223 0)
(7.23e-220 2.79683e-220 0)
(-1.55752e-217 -5.92294e-218 0)
(-2.45145e-214 -9.16192e-215 0)
(2.63314e-212 9.66869e-213 0)
(6.09415e-211 2.19779e-211 0)
(5.72601e-209 2.02746e-209 0)
(4.85516e-208 1.68724e-208 0)
(-4.72546e-206 -1.61117e-206 0)
(-7.18684e-202 -2.40337e-202 0)
(-2.3244e-198 -7.62135e-199 0)
(2.73718e-197 8.79632e-198 0)
(1.44718e-195 4.55632e-196 0)
(3.02944e-192 9.34003e-193 0)
(2.25327e-188 6.79963e-189 0)
(-9.01935e-188 -2.66272e-188 0)
(-1.35194e-185 -3.9028e-186 0)
(-4.86793e-183 -1.37349e-183 0)
(-1.09781e-179 -3.02594e-180 0)
(-1.70898e-178 -4.5994e-179 0)
(1.77008e-175 4.64881e-176 0)
(-4.67148e-176 -1.19653e-176 0)
(-4.25628e-173 -1.06249e-173 0)
(-5.20322e-171 -1.26497e-171 0)
(-3.18692e-166 -7.54003e-167 0)
(-1.86094e-166 -4.28161e-167 0)
(1.47553e-164 3.2989e-165 0)
(2.67906e-163 5.81571e-164 0)
(2.88779e-162 6.08107e-163 0)
(2.26359e-161 4.61878e-162 0)
(1.40376e-160 2.77195e-161 0)
(7.25184e-160 1.3839e-160 0)
(3.23893e-159 5.96532e-160 0)
(1.28973e-158 2.28931e-159 0)
(4.71229e-158 8.04858e-159 0)
(1.63089e-157 2.67504e-158 0)
(5.5778e-157 8.76454e-158 0)
(1.90495e-156 2.85974e-157 0)
(4.98874e-156 7.13397e-157 0)
(1.08786e-155 1.47679e-156 0)
(1.85711e-155 2.38247e-156 0)
(3.3835e-155 4.07651e-156 0)
(4.08346e-155 4.58203e-156 0)
(1.19866e-154 1.23974e-155 0)
(-2.82959e-154 -2.6584e-155 0)
(-1.24816e-153 -1.03634e-154 0)
(-4.25601e-154 -2.96846e-155 0)
(2.38332e-150 1.2742e-151 0)
(-4.557e-137 -1.47316e-138 0)
(3.28642e-130 7.99768e-133 0)
(-7.59583e-128 3.03287e-129 0)
(-4.28446e-127 4.0281e-128 0)
(-3.94769e-117 5.0684e-118 0)
(0 0 0)
(0 0 0)
(0 0 0)
(0 0 0)
(0 0 0)
(0 0 0)
(0 0 0)
(0 0 0)
(0 0 0)
(0 0 0)
(2.94711e-317 -3.11793e-316 0)
(-4.10023e-313 -1.34752e-311 0)
(-5.36228e-308 -3.45434e-307 0)
(-1.4495e-303 -5.1056e-303 0)
(-1.79996e-299 -4.2971e-299 0)
(-1.18278e-295 -2.11039e-295 0)
(-4.46893e-292 -6.30661e-292 0)
(-1.04853e-288 -1.21706e-288 0)
(-1.62759e-285 -1.60049e-285 0)
(-1.7275e-282 -1.47461e-282 0)
(-1.23053e-279 -9.30788e-280 0)
(-5.16235e-277 -3.52035e-277 0)
(-1.63894e-276 -1.0238e-276 0)
(1.62579e-271 9.40546e-272 0)
(1.23819e-268 6.71456e-269 0)
(3.80667e-266 1.96152e-266 0)
(1.42583e-263 7.03261e-264 0)
(2.11704e-261 1.01728e-261 0)
(2.39203e-259 1.11916e-259 0)
(2.0192e-257 9.2828e-258 0)
(6.85288e-256 3.10832e-256 0)
(-2.23022e-251 -1.00119e-251 0)
(-1.54319e-249 -6.85337e-250 0)
(1.00678e-246 4.40961e-247 0)
(4.95873e-243 2.14277e-243 0)
(1.01078e-242 4.31005e-243 0)
(-5.98677e-239 -2.51653e-239 0)
(-1.98064e-235 -8.19925e-236 0)
(3.7877e-234 1.54355e-234 0)
(1.72295e-230 6.91058e-231 0)
(-8.45123e-229 -3.33515e-229 0)
(-1.24899e-225 -4.84723e-226 0)
(4.84019e-223 1.84643e-223 0)
(7.56176e-220 2.83442e-220 0)
(-1.58087e-217 -5.82079e-218 0)
(-2.49581e-214 -9.02408e-215 0)
(2.58314e-212 9.16834e-213 0)
(6.13553e-211 2.1368e-211 0)
(1.63338e-208 5.57933e-209 0)
(-2.26661e-208 -7.59059e-209 0)
(-6.14455e-206 -2.0166e-206 0)
(-7.04392e-202 -2.26469e-202 0)
(-2.29374e-198 -7.22141e-199 0)
(2.59464e-197 7.99539e-198 0)
(1.40812e-195 4.24482e-196 0)
(3.07775e-192 9.07126e-193 0)
(2.3766e-188 6.84451e-189 0)
(-8.51383e-188 -2.39444e-188 0)
(-1.30937e-185 -3.59389e-186 0)
(-4.71776e-183 -1.26298e-183 0)
(-1.06603e-179 -2.7817e-180 0)
(-1.6899e-178 -4.29522e-179 0)
(1.75297e-175 4.33667e-176 0)
(-3.88226e-176 -9.34029e-177 0)
(-4.13457e-173 -9.66487e-174 0)
(-5.05303e-171 -1.14649e-171 0)
(-3.13868e-166 -6.90495e-167 0)
(-1.90463e-166 -4.05829e-167 0)
(1.42758e-164 2.94274e-165 0)
(2.59694e-163 5.17235e-164 0)
(2.80113e-162 5.38268e-163 0)
(2.19677e-161 4.06568e-162 0)
(1.36291e-160 2.42445e-161 0)
(7.04335e-160 1.20156e-160 0)
(3.14673e-159 5.13578e-160 0)
(1.25317e-158 1.95166e-159 0)
(4.57765e-158 6.78165e-159 0)
(1.5828e-157 2.22183e-158 0)
(5.47575e-157 7.2479e-158 0)
(1.80253e-156 2.23687e-157 0)
(5.08395e-156 5.87451e-157 0)
(9.75258e-156 1.04014e-156 0)
(2.31161e-155 2.24869e-156 0)
(2.31354e-155 2.0185e-156 0)
(3.66364e-154 2.79572e-155 0)
(-7.8592e-153 -5.04987e-154 0)
(6.25323e-154 3.18014e-155 0)
(2.94187e-151 1.03643e-152 0)
(6.05876e-147 9.58947e-149 0)
(-1.53931e-141 1.32325e-143 0)
(-2.45148e-135 9.8376e-137 0)
(-1.75228e-128 1.47649e-129 0)
(3.21448e-126 -4.7301e-127 0)
(-1.25392e-122 2.94209e-123 0)
(-2.44408e-117 7.78165e-118 0)
(-4.77051 2.31978 0)
(-0.0155552 0.00769576 0)
(-0.0185334 0.00797886 0)
(-0.0193205 0.00729155 0)
(-0.0213001 0.00728561 0)
(-0.0231401 0.00744175 0)
(-0.0246853 0.00770925 0)
(-0.0256788 0.00800101 0)
(-0.0260219 0.00827748 0)
(-0.0257104 0.00852014 0)
(-0.0249056 0.00875417 0)
(-0.0239988 0.00909008 0)
(-0.0218228 0.00903255 0)
(-0.0180513 0.00826722 0)
(-0.0139448 0.00714747 0)
(-0.0100088 0.00580016 0)
(-0.00660148 0.00436279 0)
(-0.00392998 0.00298134 0)
(-0.00205574 0.00179696 0)
(-2.76163 0.716602 0)
(-0.0167146 0.00529509 0)
(-0.0198848 0.00610001 0)
(-0.0202961 0.00585709 0)
(-0.0220029 0.00606139 0)
(-0.0236094 0.00635933 0)
(-0.0249819 0.00675375 0)
(-0.0258405 0.00716958 0)
(-0.0260644 0.00755583 0)
(-0.0256493 0.00789492 0)
(-0.0247559 0.00820948 0)
(-0.0237726 0.00859895 0)
(-0.0215747 0.00860242 0)
(-0.0178037 0.00789949 0)
(-0.0137241 0.00683463 0)
(-0.00983491 0.00553825 0)
(-0.00648349 0.00415299 0)
(-0.00386413 0.00282704 0)
(-0.00202793 0.00169776 0)
(-0.713541 0.0819183 0)
(-0.0175975 0.00308196 0)
(-0.020933 0.00407129 0)
(-0.021075 0.00426467 0)
(-0.0225377 0.00470923 0)
(-0.0239283 0.00519093 0)
(-0.0251448 0.0057295 0)
(-0.0258898 0.00627362 0)
(-0.0260171 0.00677887 0)
(-0.0255254 0.00722595 0)
(-0.0245712 0.00762847 0)
(-0.0235329 0.00807507 0)
(-0.0213713 0.00815997 0)
(-0.0176308 0.00753799 0)
(-0.0135855 0.00654151 0)
(-0.00973436 0.00530374 0)
(-0.0064194 0.00397131 0)
(-0.00382965 0.00269541 0)
(-0.00201306 0.00161241 0)
(-0.111188 0.000326385 0)
(-0.018287 0.000911203 0)
(-0.0213547 0.00192565 0)
(-0.0213601 0.00255932 0)
(-0.0226806 0.0032597 0)
(-0.0239655 0.00395101 0)
(-0.0251041 0.00465023 0)
(-0.025777 0.00532831 0)
(-0.0258539 0.00596084 0)
(-0.0253347 0.00652503 0)
(-0.0243513 0.00701933 0)
(-0.0232714 0.00752313 0)
(-0.0212211 0.00771347 0)
(-0.0175313 0.00718572 0)
(-0.0135237 0.00626764 0)
(-0.00969918 0.00509292 0)
(-0.00640079 0.00381215 0)
(-0.00381996 0.00258078 0)
(-0.00200744 0.00153682 0)
(-0.0672685 -0.00806978 0)
(-0.0173576 -0.0012691 0)
(-0.0205059 -0.000191081 0)
(-0.0208221 0.000858361 0)
(-0.0222484 0.00179664 0)
(-0.023601 0.0026833 0)
(-0.0247498 0.00353773 0)
(-0.0254416 0.00435488 0)
(-0.0255525 0.0051196 0)
(-0.0250649 0.00580226 0)
(-0.0240897 0.00638966 0)
(-0.022988 0.0069525 0)
(-0.0211027 0.0072605 0)
(-0.0174959 0.00684159 0)
(-0.0135284 0.00600932 0)
(-0.00971855 0.00490022 0)
(-0.00641821 0.00366936 0)
(-0.00382857 0.00247797 0)
(-0.00200785 0.0014678 0)
(-0.0182182 -0.0055323 0)
(-0.0142061 -0.00289291 0)
(-0.0174609 -0.00184003 0)
(-0.0191476 -0.00064104 0)
(-0.0209674 0.000428393 0)
(-0.0226463 0.00144731 0)
(-0.0240014 0.0024321 0)
(-0.0248507 0.00337848 0)
(-0.025088 0.00426712 0)
(-0.0246991 0.00506304 0)
(-0.023776 0.00574308 0)
(-0.0226729 0.00636603 0)
(-0.0209871 0.00679367 0)
(-0.0175087 0.00649935 0)
(-0.0135841 0.00575874 0)
(-0.00977768 0.00471715 0)
(-0.00645868 0.00353461 0)
(-0.00384509 0.00237951 0)
(-0.00200632 0.00139914 0)
(-0.000919835 0.000925397 0)
(-0.000343044 0.000395557 0)
(-0.000105818 0.000139095 0)
(-3.09613e-05 4.60667e-05 0)
(-8.39978e-06 1.4034e-05 0)
(-1.80081e-06 3.3504e-06 0)
(-2.6438e-07 5.43159e-07 0)
(-1.57575e-08 3.54549e-08 0)
(2.99054e-09 -7.31063e-09 0)
(2.04928e-11 -5.40086e-11 0)
(4.56453e-13 -1.28729e-12 0)
(-1.16162e-13 3.48053e-13 0)
(-8.97035e-14 2.83601e-13 0)
(-1.35343e-11 4.48531e-11 0)
(-1.0704e-10 3.69523e-10 0)
(-7.57275e-10 2.70708e-09 0)
(-4.29011e-09 1.57914e-08 0)
(-2.13848e-08 8.06206e-08 0)
(-9.69058e-08 3.72306e-07 0)
(-3.97545e-07 1.54912e-06 0)
(-1.49658e-06 5.88857e-06 0)
(-5.19577e-06 2.05563e-05 0)
(-1.77713e-05 7.0416e-05 0)
(-5.86139e-05 0.000231727 0)
(-0.000170093 0.00066855 0)
(-0.000466192 0.00181551 0)
(-0.00121733 0.00468165 0)
(-0.00303873 0.0115041 0)
(-0.00725342 0.026947 0)
(-0.01658 0.060256 0)
(-0.0364792 0.129283 0)
(-0.0778918 0.26833 0)
(-0.162687 0.542953 0)
(-0.333904 1.07584 0)
(-0.67387 2.0886 0)
(-1.33418 3.96331 0)
(-2.57841 7.31586 0)
(-4.82226 13.0325 0)
(-8.62049 22.1597 0)
(-14.513 35.5133 0)
(-22.6739 53.0055 0)
(-32.5062 73.0559 0)
(-42.6137 92.8093 0)
(-51.4627 109.495 0)
(-58.2357 121.895 0)
(-62.9387 130.336 0)
(-65.839 135.509 0)
(-67.2108 138.008 0)
(-67.3961 138.502 0)
(-66.6884 137.54 0)
(-65.3238 135.555 0)
(-63.4817 132.866 0)
(-61.2957 129.706 0)
(-58.869 126.252 0)
(-56.2808 122.64 0)
(-53.5894 118.967 0)
(-50.8341 115.299 0)
(-48.0436 111.686 0)
(-45.2387 108.165 0)
(-42.4251 104.742 0)
(-39.6042 101.416 0)
(-36.7778 98.1803 0)
(-33.9451 95.0283 0)
(-31.1083 91.9555 0)
(-28.2698 88.9574 0)
(-25.4296 86.0279 0)
(-22.59 83.1623 0)
(-19.7529 80.3552 0)
(-16.9206 77.6017 0)
(-14.0965 74.8986 0)
(-11.2816 72.2394 0)
(-8.47982 69.6198 0)
(-5.69491 67.0354 0)
(-2.9309 64.4815 0)
(-0.193435 61.9532 0)
(2.51361 59.4445 0)
(5.18275 56.9505 0)
(7.80616 54.4664 0)
(10.3744 51.9851 0)
(12.8749 49.5011 0)
(15.2952 47.0062 0)
(17.617 44.4944 0)
(19.8182 41.9581 0)
(21.8704 39.3884 0)
(23.736 36.7763 0)
(25.3677 34.11 0)
(26.7008 31.3802 0)
(27.6515 28.5788 0)
(28.1116 25.6973 0)
(27.9463 22.7369 0)
(26.9993 19.7111 0)
(25.1439 16.6704 0)
(22.3787 13.7323 0)
(18.8701 11.0549 0)
(14.9739 8.8118 0)
(11.0347 7.06904 0)
(6.92005 5.48889 0)
(-0.000912331 0.000872091 0)
(-0.000342652 0.000372318 0)
(-0.000106513 0.000130874 0)
(-3.14708e-05 4.34399e-05 0)
(-8.61433e-06 1.326e-05 0)
(-1.8626e-06 3.17289e-06 0)
(-2.75362e-07 5.15133e-07 0)
(-1.64593e-08 3.35612e-08 0)
(3.18574e-09 -7.02855e-09 0)
(2.17984e-11 -5.16695e-11 0)
(4.85677e-13 -1.22841e-12 0)
(-1.26874e-13 3.40175e-13 0)
(-9.84805e-14 2.78153e-13 0)
(-1.50355e-11 4.44678e-11 0)
(-1.19061e-10 3.66615e-10 0)
(-8.43417e-10 2.6893e-09 0)
(-4.78031e-09 1.57028e-08 0)
(-2.38264e-08 8.02392e-08 0)
(-1.07906e-07 3.70832e-07 0)
(-4.42191e-07 1.54399e-06 0)
(-1.66216e-06 5.87241e-06 0)
(-5.75989e-06 2.05097e-05 0)
(-1.96735e-05 7.03412e-05 0)
(-6.47336e-05 0.00023158 0)
(-0.000187374 0.000668421 0)
(-0.000512169 0.00181596 0)
(-0.00133356 0.0046848 0)
(-0.00331889 0.0115164 0)
(-0.0078975 0.0269864 0)
(-0.0179953 0.0603722 0)
(-0.0394701 0.129612 0)
(-0.0840095 0.26919 0)
(-0.174878 0.545045 0)
(-0.357655 1.08067 0)
(-0.71908 2.09927 0)
(-1.41769 3.98543 0)
(-2.72764 7.36105 0)
(-5.07841 13.125 0)
(-9.03822 22.3473 0)
(-15.1536 35.8832 0)
(-23.591 53.6959 0)
(-33.7269 74.2383 0)
(-44.128 94.6391 0)
(-53.2299 112.058 0)
(-60.2009 125.191 0)
(-65.0478 134.302 0)
(-68.0434 140.052 0)
(-69.4689 143.021 0)
(-69.675 143.885 0)
(-68.9633 143.206 0)
(-67.5766 141.431 0)
(-65.6997 138.895 0)
(-63.4705 135.844 0)
(-60.9951 132.465 0)
(-58.355 128.902 0)
(-55.6101 125.261 0)
(-52.8013 121.613 0)
(-49.9575 118.01 0)
(-47.1002 114.494 0)
(-44.2361 111.074 0)
(-41.367 107.749 0)
(-38.4947 104.514 0)
(-35.6187 101.362 0)
(-32.7411 98.2891 0)
(-29.8643 95.2913 0)
(-26.9883 92.3625 0)
(-24.1156 89.4984 0)
(-21.2479 86.6936 0)
(-18.3874 83.9433 0)
(-15.5377 81.2445 0)
(-12.6997 78.5908 0)
(-9.8774 75.9779 0)
(-7.0746 73.4017 0)
(-4.29543 70.8575 0)
(-1.54562 68.3404 0)
(1.1707 65.8445 0)
(3.84573 63.3648 0)
(6.47109 60.8961 0)
(9.03658 58.4309 0)
(11.5288 55.9627 0)
(13.9334 53.4823 0)
(16.2304 50.9831 0)
(18.3947 48.4553 0)
(20.3938 45.8861 0)
(22.1835 43.2599 0)
(23.7078 40.5555 0)
(24.8897 37.7493 0)
(25.6281 34.8115 0)
(25.7931 31.7027 0)
(25.2299 28.3852 0)
(23.7788 24.8314 0)
(21.3663 21.0837 0)
(18.1077 17.2946 0)
(14.3176 13.6801 0)
(10.4622 10.4674 0)
(6.88555 7.68223 0)
(3.58171 4.91966 0)
(-0.000907409 0.000824575 0)
(-0.000341497 0.000350395 0)
(-0.00010627 0.00012249 0)
(-3.15188e-05 4.0558e-05 0)
(-8.63698e-06 1.23228e-05 0)
(-1.87213e-06 2.94071e-06 0)
(-2.76619e-07 4.74998e-07 0)
(-1.63694e-08 3.05155e-08 0)
(3.3025e-09 -6.63864e-09 0)
(2.21766e-11 -4.77572e-11 0)
(4.88231e-13 -1.11927e-12 0)
(-1.36557e-13 3.31247e-13 0)
(-1.06749e-13 2.72403e-13 0)
(-1.67757e-11 4.47851e-11 0)
(-1.32725e-10 3.68743e-10 0)
(-9.4104e-10 2.70724e-09 0)
(-5.33261e-09 1.58106e-08 0)
(-2.65666e-08 8.08131e-08 0)
(-1.20208e-07 3.73558e-07 0)
(-4.91906e-07 1.55533e-06 0)
(-1.84576e-06 5.91499e-06 0)
(-6.38336e-06 2.06569e-05 0)
(-2.1796e-05 7.09752e-05 0)
(-7.15783e-05 0.000233759 0)
(-0.000206784 0.000675087 0)
(-0.000564199 0.00183562 0)
(-0.00146631 0.00473996 0)
(-0.00364119 0.0116604 0)
(-0.00863914 0.0273272 0)
(-0.0196107 0.0610968 0)
(-0.0428082 0.130975 0)
(-0.0905732 0.271344 0)
(-0.187407 0.548094 0)
(-0.380938 1.08428 0)
(-0.761129 2.10193 0)
(-1.49164 3.98472 0)
(-2.85154 7.349 0)
(-5.27198 13.0831 0)
(-9.31518 22.2464 0)
(-15.5118 35.6986 0)
(-24.0108 53.4438 0)
(-34.1938 74.0298 0)
(-44.6656 94.6974 0)
(-53.9042 112.656 0)
(-61.0733 126.522 0)
(-66.1282 136.403 0)
(-69.3082 142.861 0)
(-70.889 146.451 0)
(-71.2194 147.841 0)
(-70.604 147.603 0)
(-69.29 146.193 0)
(-67.4669 143.961 0)
(-65.2756 141.163 0)
(-62.8248 137.994 0)
(-60.1971 134.605 0)
(-57.4537 131.107 0)
(-54.6366 127.574 0)
(-51.774 124.058 0)
(-48.8887 120.603 0)
(-45.9907 117.225 0)
(-43.0846 113.928 0)
(-40.1743 110.713 0)
(-37.2601 107.574 0)
(-34.3452 104.51 0)
(-31.4325 101.518 0)
(-28.5223 98.5923 0)
(-25.6173 95.7297 0)
(-22.7197 92.9259 0)
(-19.8317 90.1763 0)
(-16.957 87.4776 0)
(-14.0964 84.8233 0)
(-11.2542 82.2087 0)
(-8.43444 79.6295 0)
(-5.64148 77.0805 0)
(-2.88158 74.5572 0)
(-0.159293 72.0532 0)
(2.51688 69.5626 0)
(5.13754 67.0793 0)
(7.69163 64.5973 0)
(10.1649 62.1107 0)
(12.5421 59.6091 0)
(14.8014 57.0833 0)
(16.9141 54.5151 0)
(18.8428 51.8832 0)
(20.5374 49.1613 0)
(21.9324 46.3106 0)
(22.9389 43.2831 0)
(23.4405 40.0151 0)
(23.2936 36.4264 0)
(22.3418 32.4415 0)
(20.4598 28.0202 0)
(17.6703 23.2599 0)
(14.2115 18.4169 0)
(10.5088 13.8359 0)
(7.05534 9.84372 0)
(4.15446 6.5143 0)
(1.84518 3.59452 0)
(-0.000903648 0.000780872 0)
(-0.000339145 0.000329126 0)
(-0.000104849 0.000113687 0)
(-3.10914e-05 3.74418e-05 0)
(-8.46703e-06 1.12515e-05 0)
(-1.83165e-06 2.66817e-06 0)
(-2.68688e-07 4.26239e-07 0)
(-1.55478e-08 2.66874e-08 0)
(3.33971e-09 -6.16387e-09 0)
(2.1642e-11 -4.26879e-11 0)
(4.64266e-13 -9.72935e-13 0)
(-1.45194e-13 3.21456e-13 0)
(-1.14514e-13 2.66405e-13 0)
(-1.88426e-11 4.58245e-11 0)
(-1.48642e-10 3.76053e-10 0)
(-1.05434e-09 2.762e-09 0)
(-5.96859e-09 1.61191e-08 0)
(-2.97013e-08 8.23473e-08 0)
(-1.3421e-07 3.8048e-07 0)
(-5.48333e-07 1.58348e-06 0)
(-2.05454e-06 6.0218e-06 0)
(-7.0966e-06 2.10379e-05 0)
(-2.42535e-05 7.24812e-05 0)
(-7.9672e-05 0.000239261 0)
(-0.000229926 0.000691736 0)
(-0.000625969 0.00188107 0)
(-0.00161996 0.00484852 0)
(-0.00399462 0.0118743 0)
(-0.00938436 0.0276286 0)
(-0.0210919 0.0613331 0)
(-0.0456225 0.130673 0)
(-0.0958166 0.26957 0)
(-0.196532 0.54159 0)
(-0.395159 1.06365 0)
(-0.778746 2.04179 0)
(-1.49968 3.82019 0)
(-2.80811 6.93484 0)
(-5.07409 12.1317 0)
(-8.7619 20.2799 0)
(-14.3062 32.1069 0)
(-21.8678 47.7549 0)
(-31.0208 66.255 0)
(-40.6995 85.516 0)
(-49.673 103.255 0)
(-57.1405 118.074 0)
(-62.8105 129.527 0)
(-66.6859 137.681 0)
(-68.9567 142.919 0)
(-69.9179 145.808 0)
(-69.8585 146.897 0)
(-69.0282 146.656 0)
(-67.6211 145.445 0)
(-65.7805 143.53 0)
(-63.6177 141.113 0)
(-61.2193 138.351 0)
(-58.6531 135.37 0)
(-55.9687 132.259 0)
(-53.1986 129.078 0)
(-50.3688 125.873 0)
(-47.4975 122.675 0)
(-44.5983 119.506 0)
(-41.6816 116.381 0)
(-38.753 113.307 0)
(-35.819 110.288 0)
(-32.8845 107.327 0)
(-29.9514 104.421 0)
(-27.0239 101.572 0)
(-24.1051 98.7768 0)
(-21.1978 96.0327 0)
(-18.3058 93.3365 0)
(-15.4304 90.6822 0)
(-12.5762 88.0654 0)
(-9.74742 85.4827 0)
(-6.94886 82.9287 0)
(-4.18691 80.3983 0)
(-1.46646 77.8842 0)
(1.20344 75.3791 0)
(3.81269 72.8771 0)
(6.34947 70.3707 0)
(8.79821 67.8498 0)
(11.1413 65.297 0)
(13.3525 62.692 0)
(15.3979 60.0062 0)
(17.2325 57.2024 0)
(18.7952 54.231 0)
(20.0053 51.0215 0)
(20.7552 47.4852 0)
(20.9079 43.5101 0)
(20.3085 38.9743 0)
(18.8171 33.7918 0)
(16.3915 27.9974 0)
(13.2123 21.8806 0)
(9.68476 15.9279 0)
(6.34087 10.6874 0)
(3.63607 6.55773 0)
(1.73684 3.57315 0)
(0.572273 1.51 0)
(-0.000899853 0.000739572 0)
(-0.000334058 0.000307004 0)
(-0.000102142 0.000104419 0)
(-3.01892e-05 3.41303e-05 0)
(-8.14339e-06 1.01188e-05 0)
(-1.74582e-06 2.36947e-06 0)
(-2.52757e-07 3.7239e-07 0)
(-1.41257e-08 2.24556e-08 0)
(3.30049e-09 -5.62804e-09 0)
(2.03012e-11 -3.6922e-11 0)
(4.16914e-13 -8.04261e-13 0)
(-1.52798e-13 3.10996e-13 0)
(-1.21781e-13 2.60199e-13 0)
(-2.13389e-11 4.76314e-11 0)
(-1.67465e-10 3.88735e-10 0)
(-1.18758e-09 2.85444e-09 0)
(-6.71086e-09 1.66331e-08 0)
(-3.33573e-08 8.49213e-08 0)
(-1.50636e-07 3.92429e-07 0)
(-6.1519e-07 1.63414e-06 0)
(-2.3039e-06 6.2188e-06 0)
(-7.93711e-06 2.16992e-05 0)
(-2.7317e-05 7.54026e-05 0)
(-8.92838e-05 0.000248076 0)
(-0.000255634 0.000712892 0)
(-0.000686522 0.00191613 0)
(-0.00175049 0.00487648 0)
(-0.0042591 0.0118106 0)
(-0.00989822 0.0272504 0)
(-0.0219312 0.0597865 0)
(-0.0465133 0.125232 0)
(-0.0949777 0.2519 0)
(-0.187754 0.489269 0)
(-0.360251 0.920061 0)
(-0.672638 1.67958 0)
(-1.22065 2.97362 0)
(-2.14844 5.09767 0)
(-3.65747 8.44523 0)
(-6.00622 13.5005 0)
(-9.49336 20.8093 0)
(-14.3917 30.8639 0)
(-20.8101 43.8561 0)
(-28.4513 59.2128 0)
(-36.5503 75.4795 0)
(-44.2854 91.1259 0)
(-51.1183 105.179 0)
(-56.6949 116.988 0)
(-60.8563 126.248 0)
(-63.6267 132.994 0)
(-65.1607 137.507 0)
(-65.6642 140.17 0)
(-65.3361 141.351 0)
(-64.3542 141.381 0)
(-62.8671 140.536 0)
(-60.9949 139.038 0)
(-58.8328 137.067 0)
(-56.4558 134.761 0)