/*--------------------------------*- C++ -*----------------------------------*\
  =========                 |
  \\      /  F ield         | OpenFOAM: The Open Source CFD Toolbox
   \\    /   O peration     | Website:  https://openfoam.org
    \\  /    A nd           | Version:  7
     \\/     M anipulation  |
\*---------------------------------------------------------------------------*/
FoamFile
{
    version     2.0;
    format      ascii;
    class       volVectorField;
    location    "0";
    object      Fc;
}
// * * * * * * * * * * * * * * * * * * * * * * * * * * * * * * * * * * * * * //

dimensions      [1 -2 -2 0 0 0 0];

internalField   nonuniform List<vector> 
58002
(
(0 0 0)
(0 0 0)
(0 0 0)
(0 0 0)
(0 0 0)
(0 0 0)
(0 0 0)
(0 0 0)
(0 0 0)
(0 0 0)
(0 0 0)
(-7.19825e-317 9.43409e-318 0)
(-3.21303e-314 3.45772e-315 0)
(-1.96683e-308 1.58217e-309 0)
(-4.23152e-304 2.30104e-305 0)
(-4.23712e-300 1.33888e-301 0)
(-2.84496e-296 3.61741e-298 0)
(-1.34566e-292 -3.36584e-295 0)
(-4.56046e-289 -6.62622e-291 0)
(-1.1232e-285 -2.6951e-287 0)
(-2.03734e-282 -6.39311e-284 0)
(-2.79783e-279 -1.04034e-280 0)
(-3.06935e-276 -1.28006e-277 0)
(-2.86708e-273 -1.29714e-274 0)
(-2.48334e-270 -1.19025e-271 0)
(-1.52753e-267 -7.62291e-269 0)
(-5.94079e-265 -3.04451e-266 0)
(1.46418e-264 7.62406e-266 0)
(5.85786e-262 3.08069e-263 0)
(3.08718e-260 1.63374e-261 0)
(3.25713e-259 1.73168e-260 0)
(3.24113e-255 1.73777e-256 0)
(-3.48314e-254 -1.88011e-255 0)
(-1.71533e-249 -9.34429e-251 0)
(-2.23069e-249 -1.22845e-250 0)
(1.82473e-244 1.01643e-245 0)
(-6.93113e-244 -3.90582e-245 0)
(-2.51014e-239 -1.43093e-240 0)
(-3.02417e-238 -1.74389e-239 0)
(3.89094e-234 2.26941e-235 0)
(-1.39059e-234 -8.2034e-236 0)
(-2.99875e-228 -1.78933e-229 0)
(-2.91039e-228 -1.75682e-229 0)
(1.05812e-222 6.46262e-224 0)
(2.62469e-222 1.62219e-223 0)
(-1.19062e-217 -7.44653e-219 0)
(-1.00717e-216 -6.37455e-218 0)
(1.36999e-217 8.7753e-219 0)
(7.75032e-215 5.02524e-216 0)
(6.42364e-212 4.2172e-213 0)
(1.53288e-210 1.01916e-211 0)
(-3.04367e-208 -2.04963e-209 0)
(-1.55294e-203 -1.05929e-204 0)
(-7.91094e-202 -5.4672e-203 0)
(-1.04432e-200 -7.31476e-202 0)
(2.52075e-199 1.79018e-200 0)
(1.28522e-194 9.25727e-196 0)
(1.03785e-192 7.58413e-194 0)
(4.57272e-191 3.39117e-192 0)
(1.24189e-191 9.35144e-193 0)
(-8.20874e-188 -6.2801e-189 0)
(-3.37259e-183 -2.62316e-184 0)
(-3.38673e-182 -2.67952e-183 0)
(6.1838e-182 4.97989e-183 0)
(6.52957e-180 5.35679e-181 0)
(2.01844e-178 1.68866e-179 0)
(-1.09127e-175 -9.32034e-177 0)
(-4.56241e-174 -3.98241e-175 0)
(-9.33303e-173 -8.33629e-174 0)
(-1.26188e-171 -1.15517e-172 0)
(-1.28095e-170 -1.20403e-171 0)
(-1.05118e-169 -1.01653e-170 0)
(-7.33677e-169 -7.31542e-170 0)
(-2.96191e-168 -3.05311e-169 0)
(-4.28207e-168 -4.57742e-169 0)
(-3.44834e-168 -3.83655e-169 0)
(3.75533e-168 4.36673e-169 0)
(3.65183e-167 4.46026e-168 0)
(1.56467e-166 2.01932e-167 0)
(5.44548e-166 7.4785e-167 0)
(1.63746e-165 2.41388e-166 0)
(6.08775e-165 9.73883e-166 0)
(1.50738e-164 2.652e-165 0)
(1.29e-163 2.53779e-164 0)
(-2.92725e-160 -6.5829e-161 0)
(2.30687e-144 6.10982e-145 0)
(-1.90465e-126 -6.18866e-127 0)
(7.35408e-115 3.11315e-115 0)
(-2.93711e-63 -1.78692e-63 0)
(5.05925e-49 5.35578e-49 0)
(-1.02066e-34 -3.46345e-34 0)
(-9.36434e-16 3.46036e-15 0)
(-2.56185 3.60171 0)
(-57539 175793 0)
(6.63163e+09 7.04576e+07 0)
(0 0 0)
(0 0 0)
(0 0 0)
(0 0 0)
(0 0 0)
(0 0 0)
(0 0 0)
(0 0 0)
(0 0 0)
(0 0 0)
(0 0 0)
(6.95599e-315 -9.19624e-316 0)
(1.73805e-310 -1.89762e-311 0)
(2.43322e-306 -2.0072e-307 0)
(1.67245e-302 -9.52754e-304 0)
(5.81481e-299 -2.02219e-300 0)
(1.11391e-295 -1.84008e-297 0)
(8.04122e-293 -1.57046e-295 0)
(-2.2702e-289 -2.13802e-291 0)
(-9.38748e-286 -1.71205e-287 0)
(-1.92358e-282 -4.81014e-284 0)
(-2.74328e-279 -8.29667e-281 0)
(-3.04904e-276 -1.04448e-277 0)
(-2.86146e-273 -1.06898e-274 0)
(-2.48217e-270 -9.85006e-272 0)
(-1.5273e-267 -6.31881e-269 0)
(-5.9395e-265 -2.52545e-266 0)
(1.46323e-264 6.32295e-266 0)
(5.84335e-262 2.55256e-263 0)
(3.07523e-260 1.35389e-261 0)
(3.2436e-259 1.43258e-260 0)
(3.23053e-255 1.43151e-256 0)
(-3.46767e-254 -1.54636e-255 0)
(-1.71033e-249 -7.69446e-251 0)
(-2.22778e-249 -1.01262e-250 0)
(1.8205e-244 8.36589e-246 0)
(-6.89735e-244 -3.20513e-245 0)
(-2.50023e-239 -1.17481e-240 0)
(-3.01887e-238 -1.43404e-239 0)
(3.88247e-234 1.86396e-235 0)
(-1.36915e-234 -6.64239e-236 0)
(-2.99245e-228 -1.46717e-229 0)
(-2.91075e-228 -1.44267e-229 0)
(1.05455e-222 5.28521e-224 0)
(2.62303e-222 1.32946e-223 0)
(-1.18531e-217 -6.07492e-219 0)
(-1.00562e-216 -5.21119e-218 0)
(1.31265e-217 6.87851e-219 0)
(7.71624e-215 4.09034e-216 0)
(6.39262e-212 3.42954e-213 0)
(1.53009e-210 8.30947e-212 0)
(-3.02821e-208 -1.66468e-209 0)
(-1.54477e-203 -8.59565e-205 0)
(-7.86906e-202 -4.43336e-203 0)
(-1.04237e-200 -5.94941e-202 0)
(2.50549e-199 1.44953e-200 0)
(1.27752e-194 7.49399e-196 0)
(1.03143e-192 6.13592e-194 0)
(4.56184e-191 2.75314e-192 0)
(1.27175e-191 7.79203e-193 0)
(-8.15187e-188 -5.07527e-189 0)
(-3.34849e-183 -2.12005e-184 0)
(-3.38002e-182 -2.17749e-183 0)
(6.10074e-182 4.00195e-183 0)
(6.4756e-180 4.33048e-181 0)
(2.01265e-178 1.37412e-179 0)
(-1.08132e-175 -7.54757e-177 0)
(-4.52078e-174 -3.23023e-175 0)
(-9.24599e-173 -6.77396e-174 0)
(-1.24998e-171 -9.41023e-173 0)
(-1.26906e-170 -9.84203e-172 0)
(-1.04153e-169 -8.34245e-171 0)
(-7.26912e-169 -6.03048e-170 0)
(-2.9517e-168 -2.54526e-169 0)
(-4.29798e-168 -3.86872e-169 0)
(-3.48767e-168 -3.29253e-169 0)
(3.62221e-168 3.60571e-169 0)
(3.60956e-167 3.8137e-168 0)
(1.56355e-166 1.7672e-167 0)
(5.59157e-166 6.82062e-167 0)
(2.5083e-165 3.33712e-166 0)
(1.29775e-163 1.90862e-164 0)
(1.33824e-159 2.21098e-160 0)
(-1.66495e-154 -3.14861e-155 0)
(7.95375e-140 1.76325e-140 0)
(-2.86844e-125 -7.69189e-126 0)
(1.98288e-111 6.697e-112 0)
(-3.7945e-97 -1.70581e-97 0)
(-9.27761e-66 -6.03246e-66 0)
(-3.96861e-46 -4.30451e-46 0)
(-1.3987e-31 -3.54174e-31 0)
(-9.20007e-17 3.36643e-15 0)
(-1.29089 3.94983 0)
(-11817.5 174072 0)
(6.55734e+09 6.8319e+07 0)
(0 0 0)
(0 0 0)
(0 0 0)
(0 0 0)
(0 0 0)
(0 0 0)
(0 0 0)
(0 0 0)
(0 0 0)
(0 0 0)
(0 0 0)
(-2.36217e-314 3.151e-315 0)
(1.16355e-310 -1.28885e-311 0)
(4.16585e-306 -3.52215e-307 0)
(5.92325e-302 -3.52756e-303 0)
(4.57831e-298 -1.73725e-299 0)
(1.82373e-294 -3.70382e-296 0)
(3.77301e-291 -2.41008e-293 0)
(4.27136e-288 1.85007e-290 0)
(3.07875e-285 3.85254e-287 0)
(9.71653e-283 1.8147e-284 0)
(-1.2883e-279 -3.00902e-281 0)
(-2.45087e-276 -6.58729e-278 0)
(-2.6717e-273 -7.89456e-275 0)
(-2.43358e-270 -7.67168e-272 0)
(-1.51958e-267 -5.00186e-269 0)
(-5.87988e-265 -1.98924e-266 0)
(1.51322e-264 5.19229e-266 0)
(5.84602e-262 2.0211e-263 0)
(3.05386e-260 1.06099e-261 0)
(3.21275e-259 1.11719e-260 0)
(3.21414e-255 1.11675e-256 0)
(-3.41818e-254 -1.19551e-255 0)
(-1.70072e-249 -6.00222e-251 0)
(-2.23191e-249 -7.95646e-251 0)
(1.81409e-244 6.53476e-246 0)
(-6.84063e-244 -2.48994e-245 0)
(-2.47612e-239 -9.10498e-241 0)
(-3.01033e-238 -1.11776e-239 0)
(3.86295e-234 1.44784e-235 0)
(-1.34828e-234 -5.10015e-236 0)
(-2.98216e-228 -1.1387e-229 0)
(-2.91013e-228 -1.12208e-229 0)
(1.04881e-222 4.0848e-224 0)
(2.61939e-222 1.03052e-223 0)
(-1.17626e-217 -4.67406e-219 0)
(-1.0029e-216 -4.02514e-218 0)
(1.216e-217 4.93091e-219 0)
(7.64919e-215 3.13537e-216 0)
(6.34315e-212 2.62938e-213 0)
(1.52347e-210 6.3873e-212 0)
(-3.00217e-208 -1.27295e-209 0)
(-1.53077e-203 -6.56442e-205 0)
(-7.79746e-202 -3.3833e-203 0)
(-1.03826e-200 -4.56156e-202 0)
(2.48107e-199 1.10436e-200 0)
(1.26438e-194 5.70313e-196 0)
(1.02028e-192 4.66461e-194 0)
(4.53961e-191 2.10501e-192 0)
(1.31724e-191 6.20143e-193 0)
(-8.05197e-188 -3.85287e-189 0)
(-3.30311e-183 -1.60776e-184 0)
(-3.36331e-182 -1.66652e-183 0)
(5.95411e-182 3.00669e-183 0)
(6.37751e-180 3.2877e-181 0)
(1.99906e-178 1.05402e-179 0)
(-1.06299e-175 -5.74191e-177 0)
(-4.44171e-174 -2.46237e-175 0)
(-9.08013e-173 -5.17861e-174 0)
(-1.22691e-171 -7.22042e-173 0)
(-1.24497e-170 -7.58489e-172 0)
(-1.02098e-169 -6.46098e-171 0)
(-7.10518e-169 -4.68847e-170 0)
(-2.97133e-168 -2.05453e-169 0)
(-4.22198e-168 -3.07628e-169 0)
(2.03031e-168 1.56824e-169 0)
(5.75293e-168 4.74273e-169 0)
(-2.37596e-166 -2.10814e-167 0)
(-1.96044e-164 -1.89065e-165 0)
(-2.37763e-163 -2.51887e-164 0)
(-1.05219e-160 -1.23925e-161 0)
(-2.92758e-158 -3.89103e-159 0)
(-1.77894e-154 -2.7162e-155 0)
(-8.98038e-153 -1.6068e-153 0)
(3.00969e-140 6.45995e-141 0)
(-9.80879e-126 -2.60132e-126 0)
(1.19925e-111 4.07556e-112 0)
(3.84702e-95 1.75488e-95 0)
(-9.39209e-61 -6.13176e-61 0)
(-8.20104e-46 -8.44334e-46 0)
(8.84318e-31 1.7134e-30 0)
(-1.06932e-16 -6.38681e-16 0)
(-0.207468 2.92092 0)
(9872.57 134342 0)
(6.48395e+09 6.64584e+07 0)
(0 0 0)
(0 0 0)
(0 0 0)
(0 0 0)
(0 0 0)
(0 0 0)
(0 0 0)
(0 0 0)
(0 0 0)
(0 0 0)
(0 0 0)
(-5.85393e-314 7.8785e-315 0)
(-5.62598e-310 6.32122e-311 0)
(-1.94717e-306 1.68637e-307 0)
(2.96962e-302 -1.84538e-303 0)
(4.60303e-298 -1.89246e-299 0)
(3.24571e-294 -7.82134e-296 0)
(1.34396e-290 -1.45412e-292 0)
(3.37056e-287 -2.53247e-290 0)
(4.91875e-284 3.34146e-286 0)
(4.27723e-281 5.28215e-283 0)
(2.28563e-278 3.76368e-280 0)
(7.87628e-276 1.53448e-277 0)
(1.40568e-273 3.04971e-275 0)
(-1.49177e-270 -3.4711e-272 0)
(-1.37845e-267 -3.3465e-269 0)
(-5.00645e-265 -1.24314e-266 0)
(2.49391e-264 6.21736e-266 0)
(6.11075e-262 1.51269e-263 0)
(3.07801e-260 7.53304e-262 0)
(3.20884e-259 7.78777e-261 0)
(3.19264e-255 7.73262e-257 0)
(-3.3723e-254 -8.23138e-256 0)
(-1.68316e-249 -4.1487e-251 0)
(-2.21481e-249 -5.51468e-251 0)
(1.80306e-244 4.5351e-246 0)
(-6.69387e-244 -1.70028e-245 0)
(-2.46859e-239 -6.32868e-241 0)
(-2.98806e-238 -7.72594e-240 0)
(3.86804e-234 1.00806e-235 0)
(-1.26073e-234 -3.31094e-236 0)
(-2.96872e-228 -7.85857e-230 0)
(-2.91522e-228 -7.78214e-230 0)
(1.04097e-222 2.80326e-224 0)
(2.61096e-222 7.09282e-224 0)
(-1.16723e-217 -3.19816e-219 0)
(-9.99103e-217 -2.76128e-218 0)
(1.14745e-217 3.20052e-219 0)
(7.57243e-215 2.13311e-216 0)
(6.25583e-212 1.78061e-213 0)
(1.51848e-210 4.36728e-212 0)
(-2.97719e-208 -8.65072e-210 0)
(-1.51666e-203 -4.45274e-205 0)
(-7.72696e-202 -2.29368e-203 0)
(-1.03511e-200 -3.1097e-202 0)
(2.45385e-199 7.46576e-201 0)
(1.25184e-194 3.858e-196 0)
(1.01114e-192 3.1576e-194 0)
(4.51538e-191 1.43029e-192 0)
(1.33628e-191 4.30018e-193 0)
(-7.97531e-188 -2.61102e-189 0)
(-3.26826e-183 -1.0897e-184 0)
(-3.35329e-182 -1.13995e-183 0)
(5.84399e-182 2.02927e-183 0)
(6.31167e-180 2.24438e-181 0)
(1.9913e-178 7.26994e-180 0)
(-1.05114e-175 -3.94913e-177 0)
(-4.39127e-174 -1.70235e-175 0)
(-8.97833e-173 -3.60469e-174 0)
(-1.21348e-171 -5.06761e-173 0)
(-1.23175e-170 -5.3743e-172 0)
(-1.01724e-169 -4.65882e-171 0)
(-8.51323e-169 -4.11526e-170 0)
(-2.07431e-168 -1.06547e-169 0)
(-2.54568e-167 -1.39972e-168 0)
(6.93755e-164 4.11481e-165 0)
(2.57857e-162 1.6639e-163 0)
(4.96795e-161 3.5228e-162 0)
(1.94689e-160 1.53468e-161 0)
(2.37077e-160 2.10303e-161 0)
(-1.16856e-158 -1.18165e-159 0)
(-2.89732e-155 -3.39032e-156 0)
(-3.8908e-153 -5.36259e-154 0)
(-3.13809e-148 -5.19372e-149 0)
(2.17598e-142 4.4175e-143 0)
(-1.30402e-127 -3.33036e-128 0)
(1.34055e-112 4.43784e-113 0)
(-1.00433e-72 -4.46623e-73 0)
(9.89613e-57 6.18536e-57 0)
(-1.25452e-41 -1.17079e-41 0)
(2.11437e-32 3.22153e-32 0)
(6.30978e-18 1.83354e-17 0)
(0.187263 1.47478 0)
(15897.2 92594.8 0)
(6.41286e+09 6.44784e+07 0)
(0 0 0)
(0 0 0)
(0 0 0)
(0 0 0)
(0 0 0)
(0 0 0)
(0 0 0)
(0 0 0)
(0 0 0)
(0 0 0)
(1.15588e-317 -1.68706e-318 0)
(-2.80997e-313 3.81527e-314 0)
(-7.08274e-309 8.07064e-310 0)
(-8.65305e-305 7.67222e-306 0)
(-5.80957e-301 3.76056e-302 0)
(-2.06307e-297 9.13576e-299 0)
(-3.04862e-294 8.5015e-296 0)
(4.95659e-291 -7.5599e-293 0)
(3.25157e-287 -1.89733e-289 0)
(8.1369e-284 8.7063e-287 0)
(1.26616e-280 7.61488e-283 0)
(1.27084e-277 1.21471e-279 0)
(8.39845e-275 1.01198e-276 0)
(3.49266e-272 4.81071e-274 0)
(9.01151e-270 1.34252e-271 0)
(4.88489e-268 7.55649e-270 0)
(1.0755e-265 1.67915e-267 0)
(1.59989e-263 2.45285e-265 0)
(1.02076e-261 1.51251e-263 0)
(3.56806e-260 5.0897e-262 0)
(3.73979e-259 5.22686e-261 0)
(3.10419e-255 4.33456e-257 0)
(-3.8259e-254 -5.39607e-256 0)
(-1.5951e-249 -2.27382e-251 0)
(4.33413e-250 6.23894e-252 0)
(1.76383e-244 2.56196e-246 0)
(-6.7564e-244 -9.89332e-246 0)
(-2.59953e-239 -3.83254e-241 0)
(-3.25856e-238 -4.82973e-240 0)
(4.3406e-234 6.4599e-236 0)
(-2.13434e-235 -3.18803e-237 0)
(-2.94464e-228 -4.41613e-230 0)
(-2.91146e-228 -4.38724e-230 0)
(1.0282e-222 1.55746e-224 0)
(2.61821e-222 3.98602e-224 0)
(-1.15475e-217 -1.76635e-219 0)
(-9.92966e-217 -1.52639e-218 0)
(1.02147e-217 1.57955e-219 0)
(7.70856e-215 1.20059e-216 0)
(6.2595e-212 9.82522e-214 0)
(1.51563e-210 2.39709e-212 0)
(-2.95107e-208 -4.70103e-210 0)
(-1.50917e-203 -2.42221e-205 0)
(-7.78083e-202 -1.2598e-203 0)
(-1.03572e-200 -1.69427e-202 0)
(2.42681e-199 4.01459e-201 0)
(1.24474e-194 2.08284e-196 0)
(1.00555e-192 1.70313e-194 0)
(4.51834e-191 7.76204e-193 0)
(1.37944e-191 2.41031e-193 0)
(-7.93211e-188 -1.41297e-189 0)
(-3.24891e-183 -5.91001e-185 0)
(-3.349e-182 -6.2351e-184 0)
(5.78111e-182 1.10555e-183 0)
(6.28593e-180 1.24034e-181 0)
(1.98964e-178 4.06825e-180 0)
(-1.04738e-175 -2.22796e-177 0)
(-4.38096e-174 -9.74184e-176 0)
(-8.97068e-173 -2.09868e-174 0)
(-1.21405e-171 -3.00894e-173 0)
(-1.27528e-170 -3.37094e-172 0)
(-1.36537e-169 -3.87653e-171 0)
(-5.80807e-169 -1.78583e-170 0)
(-2.37589e-168 -7.98419e-170 0)
(-6.53887e-166 -2.42437e-167 0)
(-2.91896e-160 -1.20558e-161 0)
(-4.5105e-160 -2.09629e-161 0)
(2.19888e-161 1.16235e-162 0)
(1.65535e-158 1.00704e-159 0)
(2.01795e-157 1.43065e-158 0)
(6.03798e-153 5.05059e-154 0)
(6.51481e-152 6.51261e-153 0)
(2.1601e-149 2.61931e-150 0)
(-2.76031e-147 -4.12689e-148 0)
(6.78637e-141 1.27237e-141 0)
(-4.00365e-133 -9.59435e-134 0)
(1.08127e-118 3.38506e-119 0)
(-1.06158e-79 -4.44892e-80 0)
(2.15881e-63 1.24588e-63 0)
(-1.33327e-42 -1.09553e-42 0)
(8.39058e-39 1.02293e-38 0)
(-3.78227e-17 -7.25157e-17 0)
(0.114449 0.381607 0)
(14617.5 60095.6 0)
(6.34393e+09 6.2481e+07 0)
(0 0 0)
(0 0 0)
(0 0 0)
(0 0 0)
(0 0 0)
(0 0 0)
(0 0 0)
(0 0 0)
(0 0 0)
(0 0 0)
(-1.72477e-316 2.53239e-317 0)
(-5.43227e-312 7.4405e-313 0)
(-1.11151e-307 1.28423e-308 0)
(-1.31222e-303 1.19051e-304 0)
(-9.18039e-300 6.18023e-301 0)
(-3.88835e-296 1.84511e-297 0)
(-1.02416e-292 3.24416e-294 0)
(-1.7341e-289 3.4138e-291 0)
(-1.86336e-286 2.03511e-288 0)
(-1.17403e-283 5.46979e-286 0)
(1.13903e-281 -3.78527e-285 0)
(8.98276e-278 2.36131e-280 0)
(8.91871e-275 4.08468e-277 0)
(5.097e-272 2.95305e-274 0)
(1.84306e-269 1.18801e-271 0)
(2.90843e-267 1.91074e-269 0)
(5.36191e-265 3.39397e-267 0)
(3.59314e-263 2.07272e-265 0)
(1.50953e-261 7.72353e-264 0)
(3.83737e-260 1.74586e-262 0)
(5.61989e-258 2.43184e-260 0)
(-2.67258e-256 -1.16124e-258 0)
(-1.5994e-253 -7.06845e-256 0)
(-5.13136e-250 -2.29246e-252 0)
(7.54093e-248 3.38402e-250 0)
(1.55728e-244 6.99021e-247 0)
(-8.06634e-244 -3.60697e-246 0)
(-6.35368e-239 -2.81573e-241 0)
(-9.6997e-238 -4.23409e-240 0)
(1.29212e-233 5.5272e-236 0)
(2.21392e-233 9.25665e-236 0)
(-2.95308e-228 -1.20727e-230 0)
(-2.89011e-228 -1.15695e-230 0)
(1.03302e-222 4.05043e-225 0)
(2.66228e-222 1.02054e-224 0)
(-1.14375e-217 -4.27651e-220 0)
(-1.003e-216 -3.65788e-219 0)
(6.92667e-218 2.47227e-220 0)
(1.2285e-213 4.30959e-216 0)
(8.22946e-212 2.84039e-214 0)
(1.432e-210 4.84957e-213 0)
(-2.91923e-208 -9.6715e-211 0)
(-5.42135e-203 -1.75909e-205 0)
(-1.06562e-201 -3.40491e-204 0)
(-1.07877e-200 -3.41461e-203 0)
(2.49856e-199 7.85515e-202 0)
(1.26223e-194 3.94323e-197 0)
(1.04482e-192 3.25636e-195 0)
(4.70679e-191 1.48038e-193 0)
(1.79113e-191 5.76824e-194 0)
(-7.87638e-188 -2.62518e-190 0)
(-3.23046e-183 -1.12303e-185 0)
(-3.349e-182 -1.22883e-184 0)
(5.76925e-182 2.27418e-184 0)
(6.36354e-180 2.74378e-182 0)
(2.00747e-178 9.59526e-181 0)
(-1.05264e-175 -5.63709e-178 0)
(-4.41566e-174 -2.68316e-176 0)
(-9.07205e-173 -6.34496e-175 0)
(-1.22775e-171 -9.99325e-174 0)
(-2.57768e-170 -2.45997e-172 0)
(-1.49068e-169 -1.68008e-171 0)
(-9.05275e-169 -1.21417e-170 0)
(-4.26147e-167 -6.84476e-169 0)
(2.29803e-160 4.44271e-162 0)
(-2.42434e-158 -5.67123e-160 0)
(-8.65374e-157 -2.4622e-158 0)
(-2.62894e-156 -9.13495e-158 0)
(-2.72182e-156 -1.16055e-157 0)
(-8.80811e-157 -4.63945e-158 0)
(4.63536e-152 3.03558e-153 0)
(2.35442e-150 1.92783e-151 0)
(6.4154e-149 6.61744e-150 0)
(-3.20329e-149 -4.20228e-150 0)
(5.51313e-140 9.28824e-141 0)
(-3.64109e-139 -7.96351e-140 0)
(-2.5373e-124 -7.29521e-125 0)
(4.87812e-81 1.86806e-81 0)
(-6.74066e-65 -3.4851e-65 0)
(4.08776e-49 2.89186e-49 0)
(1.63257e-40 1.60164e-40 0)
(-1.08413e-17 -1.50693e-17 0)
(-4.25965e-07 -8.99241e-07 0)
(10858.4 38052.5 0)
(6.27731e+09 6.05451e+07 0)
(-9.16457e+09 1.4746e+08 0)
(271716 680672 0)
(90080.7 85335.4 0)
(31311.1 30760.1 0)
(12303.9 15203.6 0)
(5031.03 9529.41 0)
(1612.35 6762.98 0)
(-110.805 5261.07 0)
(-1017.42 4479.19 0)
(-1084.59 2732.82 0)
(-254.862 446.455 0)
(-1.03357 1.42354 0)
(0.00319087 -0.00388282 0)
(-3.55532e-05 4.13529e-05 0)
(-8.94324e-06 1.04986e-05 0)
(-5.9035e-06 7.2904e-06 0)
(-3.91523e-06 5.26182e-06 0)
(-2.54722e-06 3.83545e-06 0)
(-1.60562e-06 2.77857e-06 0)
(-9.01284e+09 1.45516e+08 0)
(96520.4 705549 0)
(67184.9 114176 0)
(25109.3 41545.4 0)
(9973.21 20262.5 0)
(3948.28 12368.7 0)
(1072.95 8495.74 0)
(-379.205 6395.62 0)
(-1139.14 5266.45 0)
(-1106.85 3117.73 0)
(-253.488 498.926 0)
(-1.0175 1.55787 0)
(0.00310976 -0.00414792 0)
(-3.4386e-05 4.32312e-05 0)
(-8.60355e-06 1.07713e-05 0)
(-5.65618e-06 7.35169e-06 0)
(-3.74752e-06 5.2295e-06 0)
(-2.44314e-06 3.76453e-06 0)
(-1.54986e-06 2.7006e-06 0)
(-8.85873e+09 1.44464e+08 0)
(4340.33 594178 0)
(41842.2 131548 0)
(17255.8 49570.9 0)
(6840.76 24395.2 0)
(2435.75 14786.5 0)
(290.373 10003.5 0)
(-794.913 7419.28 0)
(-1354.1 5972.95 0)
(-1170.76 3458.45 0)
(-256.743 544.998 0)
(-1.02673 1.70084 0)
(0.00310449 -0.00445372 0)
(-3.39211e-05 4.54573e-05 0)
(-8.42159e-06 1.1124e-05 0)
(-5.49938e-06 7.45928e-06 0)
(-3.63606e-06 5.23309e-06 0)
(-2.37173e-06 3.72086e-06 0)
(-1.51079e-06 2.64226e-06 0)
(-8.70662e+09 1.43048e+08 0)
(-35019.3 476646 0)
(18601.3 139141 0)
(8794.62 54617 0)
(3207.77 27408.1 0)
(615.781 16681.7 0)
(-677.456 11225 0)
(-1332.63 8300.87 0)
(-1645.58 6572.8 0)
(-1263.53 3725.1 0)
(-263.632 582.064 0)
(-1.05334 1.8406 0)
(0.00315794 -0.00478378 0)
(-3.40272e-05 4.79339e-05 0)
(-8.37047e-06 1.15399e-05 0)
(-5.41797e-06 7.60389e-06 0)
(-3.57074e-06 5.26476e-06 0)
(-2.32686e-06 3.698e-06 0)
(-1.48524e-06 2.59859e-06 0)
(-8.55603e+09 1.4159e+08 0)
(-49179 389295 0)
(-1248.35 138910 0)
(420.757 57114.3 0)
(-642.226 29291.7 0)
(-1380.31 17974.5 0)
(-1763.13 12121.7 0)
(-1961.69 9020.96 0)
(-1992.33 7046.86 0)
(-1371.77 3898.49 0)
(-270.44 602.701 0)
(-1.11136 2.00243 0)
(0.00325544 -0.00511866 0)
(-3.46017e-05 5.05649e-05 0)
(-8.42991e-06 1.20047e-05 0)
(-5.40053e-06 7.77799e-06 0)
(-3.54381e-06 5.3181e-06 0)
(-2.3038e-06 3.69088e-06 0)
(-1.47062e-06 2.5657e-06 0)
(-8.40757e+09 1.40411e+08 0)
(-52221.9 336101 0)
(-17956.3 132140 0)
(-7485.61 56485.2 0)
(-4454.15 29831.2 0)
(-3408.52 18602.3 0)
(-2898.06 12689.4 0)
(-2648.16 9566.52 0)
(-2368.98 7378.02 0)
(-1479.8 3964.41 0)
(-274.108 602.216 0)
(-1.15251 2.09939 0)
(0.00338438 -0.00543752 0)
(-3.55591e-05 5.32408e-05 0)
(-8.58368e-06 1.25018e-05 0)
(-5.43808e-06 7.9737e-06 0)
(-3.54905e-06 5.38687e-06 0)
(-2.29874e-06 3.69492e-06 0)
(-1.46482e-06 2.54014e-06 0)
(-9.5555e-07 1.93932e-06 0)
(-5.29442e-07 1.28222e-06 0)
(-2.6734e-07 7.85869e-07 0)
(-1.21841e-07 4.42102e-07 0)
(-4.92569e-08 2.24718e-07 0)
(-1.69831e-08 9.96196e-08 0)
(-4.20787e-09 3.26974e-08 0)
(-1.80351e-10 1.93875e-09 0)
(1.23517e-10 -1.96922e-09 0)
(6.44543e-11 -1.73712e-09 0)
(1.66379e-11 -1.07043e-09 0)
(-7.42596e-13 -2.97436e-10 0)
(-1.34938e-13 -7.7306e-12 0)
(5.41527e-14 1.82371e-12 0)
(9.05028e-13 2.28912e-11 0)
(8.00035e-12 1.69227e-10 0)
(5.95152e-11 1.11959e-09 0)
(3.73585e-10 6.51191e-09 0)
(2.05436e-09 3.42061e-08 0)
(1.00936e-08 1.64482e-07 0)
(4.47089e-08 7.27786e-07 0)
(1.79457e-07 2.97268e-06 0)
(6.73788e-07 1.15677e-05 0)
(2.39318e-06 4.34284e-05 0)
(7.82305e-06 0.00015344 0)
(2.31587e-05 0.000504214 0)
(6.1766e-05 0.00154481 0)
(0.000146197 0.0044107 0)
(0.000300883 0.0118512 0)
(0.000500127 0.0300137 0)
(0.000498474 0.0719164 0)
(-0.000631953 0.164542 0)
(-0.00570627 0.363561 0)
(-0.0224642 0.78279 0)
(-0.0707685 1.64898 0)
(-0.198233 3.39597 0)
(-0.509782 6.80142 0)
(-1.20902 13.0997 0)
(-2.61504 23.8429 0)
(-5.0634 40.1915 0)
(-8.63298 61.7363 0)
(-12.8836 85.8782 0)
(-16.9681 108.828 0)
(-20.1245 127.648 0)
(-22.0537 141.463 0)
(-22.8578 150.947 0)
(-22.7712 157.113 0)
(-22.0171 160.76 0)
(-20.7918 162.546 0)
(-19.2527 162.999 0)
(-17.5147 162.521 0)
(-15.6569 161.398 0)
(-13.7297 159.834 0)
(-11.7683 157.98 0)
(-9.79625 155.957 0)
(-7.82875 153.86 0)
(-5.8752 151.755 0)
(-3.9385 149.683 0)
(-2.01976 147.688 0)
(-0.115281 145.793 0)
(1.78058 143.998 0)
(3.67294 142.303 0)
(5.56818 140.703 0)
(7.46991 139.198 0)
(9.38087 137.79 0)
(11.3049 136.477 0)
(13.2431 135.262 0)
(15.1965 134.141 0)
(17.1664 133.116 0)
(19.1537 132.19 0)
(21.1622 131.364 0)
(23.1943 130.64 0)
(25.2535 130.022 0)
(27.3444 129.513 0)
(29.4719 129.12 0)
(31.644 128.845 0)
(33.8674 128.696 0)
(36.1515 128.679 0)
(38.5074 128.801 0)
(40.9478 129.07 0)
(43.4904 129.491 0)
(46.1545 130.072 0)
(48.9652 130.819 0)
(51.9523 131.733 0)
(55.1502 132.809 0)
(58.6017 134.03 0)
(62.3506 135.359 0)
(66.443 136.735 0)
(70.9245 138.053 0)
(75.8192 139.146 0)
(81.1079 139.75 0)
(86.6789 139.472 0)
(92.2945 137.81 0)
(97.5884 134.243 0)
(102.065 128.355 0)
(105.315 120.16 0)
(107.152 110.168 0)
(-9.32969e-07 1.8727e-06 0)
(-5.25602e-07 1.23415e-06 0)
(-2.71254e-07 7.55939e-07 0)
(-1.27023e-07 4.25781e-07 0)
(-5.3078e-08 2.16881e-07 0)
(-1.90584e-08 9.63405e-08 0)
(-4.96124e-09 3.15807e-08 0)
(-2.24628e-10 1.84183e-09 0)
(1.77736e-10 -1.93592e-09 0)
(1.12956e-10 -1.7098e-09 0)
(4.64746e-11 -1.05207e-09 0)
(7.45907e-12 -2.90581e-10 0)
(7.49138e-14 -7.37326e-12 0)
(5.02702e-15 1.87011e-12 0)
(3.03863e-13 2.30448e-11 0)
(3.68844e-12 1.7066e-10 0)
(3.18486e-11 1.12964e-09 0)
(2.17523e-10 6.572e-09 0)
(1.25936e-09 3.4528e-08 0)
(6.38711e-09 1.66051e-07 0)
(2.88102e-08 7.34776e-07 0)
(1.16487e-07 3.00128e-06 0)
(4.36072e-07 1.168e-05 0)
(1.52687e-06 4.3854e-05 0)
(4.85023e-06 0.000154938 0)
(1.36694e-05 0.000509088 0)
(3.35183e-05 0.00155942 0)
(6.78134e-05 0.00445176 0)
(9.60917e-05 0.0119607 0)
(-4.35831e-06 0.0302891 0)
(-0.000677124 0.0725678 0)
(-0.00324658 0.166037 0)
(-0.0113214 0.366955 0)
(-0.0342175 0.790369 0)
(-0.0948457 1.66564 0)
(-0.246464 3.43197 0)
(-0.603719 6.87739 0)
(-1.38481 13.254 0)
(-2.92543 24.1384 0)
(-5.57002 40.7142 0)
(-9.38555 62.5805 0)
(-13.8959 87.1176 0)
(-18.2096 110.492 0)
(-21.5361 129.721 0)
(-23.573 143.904 0)
(-24.4347 153.709 0)
(-24.3692 160.149 0)
(-23.6097 164.023 0)
(-22.3607 165.992 0)
(-20.7856 166.593 0)
(-19.0034 166.231 0)
(-17.0956 165.198 0)
(-15.1146 163.702 0)
(-13.0971 161.897 0)
(-11.0679 159.911 0)
(-9.0433 157.841 0)
(-7.03318 155.755 0)
(-5.04068 153.694 0)
(-3.06724 151.705 0)
(-1.10914 149.812 0)
(0.839507 148.019 0)
(2.78405 146.323 0)
(4.73103 144.721 0)
(6.68414 143.212 0)
(8.64629 141.798 0)
(10.6215 140.481 0)
(12.6111 139.26 0)
(14.6162 138.131 0)
(16.6382 137.096 0)
(18.6786 136.158 0)
(20.7414 135.32 0)
(22.8293 134.583 0)
(24.946 133.948 0)
(27.0963 133.42 0)
(29.2858 133.003 0)
(31.5227 132.703 0)
(33.8143 132.524 0)
(36.1701 132.471 0)
(38.6013 132.55 0)
(41.1209 132.767 0)
(43.7471 133.127 0)
(46.499 133.634 0)
(49.4008 134.291 0)
(52.4808 135.095 0)
(55.7711 136.035 0)
(59.3108 137.089 0)
(63.138 138.214 0)
(67.2897 139.341 0)
(71.7975 140.356 0)
(76.6656 141.085 0)
(81.8485 141.265 0)
(87.2035 140.51 0)
(92.4625 138.348 0)
(97.2425 134.312 0)
(101.064 128.06 0)
(103.584 119.691 0)
(104.721 109.755 0)
(-9.16819e-07 1.81832e-06 0)
(-5.22737e-07 1.1921e-06 0)
(-2.74046e-07 7.27715e-07 0)
(-1.30856e-07 4.09071e-07 0)
(-5.59721e-08 2.08095e-07 0)
(-2.06438e-08 9.22202e-08 0)
(-5.50317e-09 2.98698e-08 0)
(-2.46205e-10 1.64451e-09 0)
(2.27866e-10 -1.902e-09 0)
(1.57564e-10 -1.67589e-09 0)
(7.34318e-11 -1.02149e-09 0)
(1.45835e-11 -2.75146e-10 0)
(2.46744e-13 -6.6651e-12 0)
(-4.84166e-14 2.04907e-12 0)
(-2.96852e-13 2.36852e-11 0)
(-6.10905e-13 1.75838e-10 0)
(4.36418e-12 1.16305e-09 0)
(6.28934e-11 6.75895e-09 0)
(4.72885e-10 3.54753e-08 0)
(2.72266e-09 1.70446e-07 0)
(1.30873e-08 7.53506e-07 0)
(5.41418e-08 3.0747e-06 0)
(2.00307e-07 1.19575e-05 0)
(6.65874e-07 4.48706e-05 0)
(1.88892e-06 0.000158392 0)
(4.19296e-06 0.000519928 0)
(5.23417e-06 0.00159052 0)
(-1.08839e-05 0.0045351 0)
(-0.00011003 0.0121715 0)
(-0.000513117 0.0307934 0)
(-0.00186466 0.0737249 0)
(-0.00589244 0.168604 0)
(-0.0170148 0.372538 0)
(-0.0461583 0.802343 0)
(-0.119351 1.69097 0)
(-0.295626 3.48479 0)
(-0.699564 6.98499 0)
(-1.56409 13.4641 0)
(-3.24104 24.5227 0)
(-6.08194 41.36 0)
(-10.139 63.5685 0)
(-14.8983 88.4971 0)
(-19.4265 112.27 0)
(-22.9092 131.873 0)
(-25.0446 146.394 0)
(-25.9602 156.498 0)
(-25.9162 163.194 0)
(-25.1546 167.28 0)
(-23.8869 169.424 0)
(-22.2815 170.165 0)
(-20.4607 169.916 0)
(-18.5083 168.971 0)
(-16.4784 167.54 0)
(-14.4091 165.785 0)
(-12.3268 163.835 0)
(-10.2485 161.791 0)
(-8.18456 159.722 0)
(-6.13848 157.671 0)
(-4.11209 155.687 0)
(-2.10172 153.8 0)
(-0.101297 152.009 0)
(1.8946 150.313 0)
(3.89258 148.708 0)
(5.89639 147.195 0)
(7.90906 145.778 0)
(9.93481 144.455 0)
(11.975 143.227 0)
(14.031 142.089 0)
(16.1044 141.044 0)
(18.1969 140.095 0)
(20.313 139.244 0)
(22.4555 138.492 0)
(24.6283 137.839 0)
(26.8367 137.29 0)
(29.0862 136.85 0)
(31.3858 136.523 0)
(33.7428 136.312 0)
(36.1669 136.222 0)
(38.6694 136.256 0)
(41.2633 136.42 0)
(43.9669 136.717 0)
(46.7987 137.149 0)
(49.7819 137.715 0)
(52.943 138.408 0)
(56.3111 139.212 0)
(59.9214 140.102 0)
(63.8056 141.03 0)
(67.9914 141.918 0)
(72.4969 142.648 0)
(77.3078 143.042 0)
(82.3553 142.836 0)
(87.4705 141.655 0)
(92.362 139.05 0)
(96.6357 134.592 0)
(99.8275 127.994 0)
(101.644 119.406 0)
(102.068 109.393 0)
(-9.05871e-07 1.77287e-06 0)
(-5.2048e-07 1.15394e-06 0)
(-2.75817e-07 7.00497e-07 0)
(-1.33449e-07 3.91867e-07 0)
(-5.7982e-08 1.98456e-07 0)
(-2.17329e-08 8.73557e-08 0)
(-5.81681e-09 2.76596e-08 0)
(-2.41721e-10 1.37002e-09 0)
(2.74238e-10 -1.86775e-09 0)
(1.98054e-10 -1.63585e-09 0)
(9.6707e-11 -9.79121e-10 0)
(2.00365e-11 -2.5179e-10 0)
(3.66587e-13 -5.80176e-12 0)
(-1.15196e-13 2.3363e-12 0)
(-9.32752e-13 2.47639e-11 0)
(-5.17399e-12 1.84622e-10 0)
(-2.46544e-11 1.22061e-09 0)
(-9.94017e-11 7.08123e-09 0)
(-3.48582e-10 3.70982e-08 0)
(-1.09037e-09 1.77901e-07 0)
(-3.22705e-09 7.84891e-07 0)
(-1.04146e-08 3.19623e-06 0)
(-4.3642e-08 1.2412e-05 0)
(-2.24994e-07 4.65162e-05 0)
(-1.17411e-06 0.000163898 0)
(-5.6055e-06 0.000536896 0)
(-2.39773e-05 0.00163807 0)
(-9.20995e-05 0.00466056 0)
(-0.000322657 0.0124861 0)
(-0.00103774 0.0315393 0)
(-0.00308902 0.0754116 0)
(-0.00862117 0.172296 0)
(-0.0228905 0.380446 0)
(-0.0584915 0.819009 0)
(-0.144679 1.72559 0)
(-0.346447 3.55544 0)
(-0.798557 7.12538 0)
(-1.74877 13.7307 0)
(-3.5644 24.9951 0)
(-6.60196 42.1262 0)
(-10.8956 64.6967 0)
(-15.8924 90.0138 0)
(-20.6193 114.161 0)
(-24.2437 134.106 0)
(-26.4682 148.935 0)
(-27.4338 159.315 0)
(-27.4118 166.25 0)
(-26.6515 170.537 0)
(-25.3701 172.846 0)
(-23.7402 173.722 0)
(-21.8866 173.581 0)
(-19.8949 172.72 0)
(-17.8209 171.353 0)
(-15.7043 169.644 0)
(-13.5727 167.728 0)
(-11.4438 165.71 0)
(-9.32874 163.657 0)
(-7.23138 161.617 0)
(-5.15385 159.641 0)
(-3.09261 157.758 0)
(-1.04156 155.97 0)
(1.00471 154.274 0)
(3.05284 152.668 0)
(5.1066 151.151 0)
(7.16906 149.729 0)
(9.24457 148.401 0)
(11.3346 147.166 0)
(13.4407 146.019 0)
(15.5646 144.964 0)
(17.7084 144.003 0)
(19.8768 143.138 0)
(22.0726 142.37 0)
(24.3001 141.699 0)
(26.5647 141.128 0)
(28.8724 140.663 0)
(31.2323 140.308 0)
(33.6518 140.063 0)
(36.1406 139.934 0)
(38.7101 139.921 0)
(41.3731 140.029 0)
(44.1475 140.261 0)
(47.0512 140.615 0)
(50.1056 141.086 0)
(53.3352 141.665 0)
(56.7657 142.332 0)
(60.4273 143.055 0)
(64.3449 143.782 0)
(68.5357 144.43 0)
(73.0033 144.873 0)
(77.7139 144.927 0)
(82.5739 144.325 0)
(87.385 142.69 0)
(91.8268 139.582 0)
(95.4816 134.585 0)
(97.8753 127.432 0)
(98.7159 118.278 0)
(97.9408 107.623 0)
(-8.99072e-07 1.73375e-06 0)
(-5.18832e-07 1.11884e-06 0)
(-2.76597e-07 6.73736e-07 0)
(-1.34878e-07 3.741e-07 0)
(-5.9144e-08 1.88046e-07 0)
(-2.2327e-08 8.18416e-08 0)
(-5.8999e-09 2.50591e-08 0)
(-2.10572e-10 1.0411e-09 0)
(3.17181e-10 -1.83348e-09 0)
(2.34149e-10 -1.58943e-09 0)
(1.15553e-10 -9.25153e-10 0)
(2.34286e-11 -2.22159e-10 0)
(4.40777e-13 -4.96858e-12 0)
(-2.01609e-13 2.70994e-12 0)
(-1.63958e-12 2.63364e-11 0)
(-1.027e-11 1.9721e-10 0)
(-5.68817e-11 1.3019e-09 0)
(-2.78441e-10 7.53419e-09 0)
(-1.24941e-09 3.93774e-08 0)
(-5.24882e-09 1.88364e-07 0)
(-2.09281e-08 8.28838e-07 0)
(-8.01252e-08 3.36568e-06 0)
(-3.06281e-07 1.30427e-05 0)
(-1.18194e-06 4.87873e-05 0)
(-4.45347e-06 0.000171447 0)
(-1.60637e-05 0.000560175 0)
(-5.50136e-05 0.0017031 0)
(-0.000178106 0.00483173 0)
(-0.000547219 0.0129125 0)
(-0.00159041 0.032542 0)
(-0.00437615 0.0776593 0)
(-0.0114857 0.177169 0)
(-0.0290539 0.390782 0)
(-0.0714227 0.840591 0)
(-0.17122 1.76993 0)
(-0.399638 3.64471 0)
(-0.901881 7.29962 0)
(-1.94055 14.0543 0)
(-3.8975 25.5544 0)
(-7.13178 43.009 0)
(-11.6565 65.9604 0)
(-16.8785 91.6655 0)
(-21.7884 116.17 0)
(-25.5403 136.43 0)
(-27.8449 151.542 0)
(-28.857 162.177 0)
(-28.8576 169.335 0)
(-28.1019 173.81 0)
(-26.8117 176.274 0)
(-25.1625 177.277 0)
(-23.2814 177.237 0)
(-21.2555 176.452 0)
(-19.1421 175.142 0)
(-16.9824 173.476 0)
(-14.8051 171.594 0)
(-12.6291 169.6 0)
(-10.4657 167.565 0)
(-8.31922 165.536 0)
(-6.19234 163.568 0)
(-4.08166 161.69 0)
(-1.98115 159.904 0)
(0.114485 158.209 0)
(2.21188 156.6 0)
(4.31476 155.081 0)
(6.42624 153.654 0)
(8.55074 152.32 0)
(10.6898 151.077 0)
(12.8451 149.921 0)
(15.0187 148.855 0)
(17.2127 147.881 0)
(19.4321 147.002 0)
(21.6798 146.217 0)
(23.9604 145.526 0)
(26.2794 144.932 0)
(28.6431 144.44 0)