/*--------------------------------*- C++ -*----------------------------------*\
  =========                 |
  \\      /  F ield         | OpenFOAM: The Open Source CFD Toolbox
   \\    /   O peration     | Website:  https://openfoam.org
    \\  /    A nd           | Version:  7
     \\/     M anipulation  |
\*---------------------------------------------------------------------------*/
FoamFile
{
    version     2.0;
    format      ascii;
    class       volVectorField;
    location    "0";
    object      Fc;
}
// * * * * * * * * * * * * * * * * * * * * * * * * * * * * * * * * * * * * * //

dimensions      [1 -2 -2 0 0 0 0];

internalField   nonuniform List<vector> 
58002
(
(0 0 0)
(0 0 0)
(0 0 0)
(0 0 0)
(0 0 0)
(0 0 0)
(0 0 0)
(0 0 0)
(0 0 0)
(0 0 0)
(0 0 0)
(0 0 0)
(0 0 0)
(0 0 0)
(0 0 0)
(0 0 0)
(0 0 0)
(0 0 0)
(-1.68809e-316 -5.33052e-317 0)
(-3.25761e-312 -9.6505e-313 0)
(-3.8955e-308 -1.08499e-308 0)
(-3.01865e-304 -7.8347e-305 0)
(-1.56968e-300 -3.84477e-301 0)
(-5.64634e-297 -1.30189e-297 0)
(-1.44882e-293 -3.19402e-294 0)
(-2.69907e-290 -5.63981e-291 0)
(-3.71317e-287 -7.59691e-288 0)
(-3.77399e-284 -7.35806e-285 0)
(-2.83464e-281 -5.5224e-282 0)
(-1.56178e-278 -2.96444e-279 0)
(-4.83694e-276 -9.12252e-277 0)
(-1.55624e-274 -2.90606e-275 0)
(1.36208e-269 2.51831e-270 0)
(3.33119e-268 6.09049e-269 0)
(-2.04606e-263 -3.69701e-264 0)
(-3.09882e-262 -5.53014e-263 0)
(8.99361e-258 1.58447e-258 0)
(1.21778e-255 2.11726e-256 0)
(1.2972e-248 2.22511e-249 0)
(4.21769e-247 7.13577e-248 0)
(-6.67929e-242 -1.11434e-242 0)
(-3.30556e-240 -5.43711e-241 0)
(9.45492e-237 1.53298e-237 0)
(1.10622e-234 1.76765e-235 0)
(-3.5944e-233 -5.65963e-234 0)
(-1.74857e-230 -2.71263e-231 0)
(-3.91477e-227 -5.98291e-228 0)
(-1.36924e-222 -2.06132e-223 0)
(-1.68045e-221 -2.49187e-222 0)
(4.79327e-217 7.00085e-218 0)
(3.12807e-216 4.50002e-217 0)
(-3.51399e-212 -4.97939e-213 0)
(-2.21169e-209 -3.08721e-210 0)
(-3.77088e-208 -5.18554e-209 0)
(4.51366e-205 6.11567e-206 0)
(1.75681e-201 2.34571e-202 0)
(4.30429e-200 5.66471e-201 0)
(-2.47548e-195 -3.21205e-196 0)
(-3.59119e-194 -4.5958e-195 0)
(1.51453e-189 1.9125e-190 0)
(2.03505e-188 2.5372e-189 0)
(-7.73783e-184 -9.53199e-185 0)
(-7.4701e-183 -9.10088e-184 0)
(7.17292e-180 8.65242e-181 0)
(4.80643e-175 5.74803e-176 0)
(5.52132e-174 6.55577e-175 0)
(1.22747e-173 1.44924e-174 0)
(-4.51113e-170 -5.3046e-171 0)
(-1.93e-169 -2.26404e-170 0)
(-6.4932e-165 -7.61308e-166 0)
(-5.17359e-163 -6.07623e-164 0)
(-3.1194e-161 -3.67978e-162 0)
(-6.53117e-156 -7.76269e-157 0)
(-2.94261e-155 -3.53602e-156 0)
(-1.82013e-155 -2.21915e-156 0)
(-4.06594e-156 -5.04813e-157 0)
(-5.78881e-157 -7.34772e-158 0)
(6.395e-157 8.33588e-158 0)
(4.48171e-156 6.03068e-157 0)
(1.11455e-155 1.55717e-156 0)
(1.24189e-155 1.81242e-156 0)
(6.43574e-156 9.87271e-157 0)
(-1.00076e-158 -1.62476e-159 0)
(-6.28319e-159 -1.08797e-159 0)
(-1.86076e-159 -3.46649e-160 0)
(-4.12652e-160 -8.35044e-161 0)
(-2.50858e-161 -5.57224e-162 0)
(-4.21143e-162 -1.03889e-162 0)
(-6.05144e-163 -1.67967e-163 0)
(3.25265e-164 1.03083e-164 0)
(1.21645e-167 4.4711e-168 0)
(1.33816e-175 5.7857e-176 0)
(4.81238e-183 2.46116e-183 0)
(-5.82958e-196 -3.4066e-196 0)
(-3.60413e-206 -1.94232e-206 0)
(0 0 0)
(0 0 0)
(0 0 0)
(0 0 0)
(0 0 0)
(0 0 0)
(0 0 0)
(0 0 0)
(0 0 0)
(0 0 0)
(0 0 0)
(0 0 0)
(0 0 0)
(0 0 0)
(0 0 0)
(0 0 0)
(0 0 0)
(0 0 0)
(0 0 0)
(-3.26394e-314 -9.45832e-315 0)
(-1.02984e-310 -2.79628e-311 0)
(4.90768e-307 1.23697e-307 0)
(7.49336e-303 1.77589e-303 0)
(5.01291e-299 1.11403e-299 0)
(2.20675e-295 4.67171e-296 0)
(6.65765e-292 1.33313e-292 0)
(1.39498e-288 2.72064e-289 0)
(2.03893e-285 3.79884e-286 0)
(2.08149e-282 3.84496e-283 0)
(1.4833e-279 2.67629e-280 0)
(5.68332e-277 1.01542e-277 0)
(2.18475e-275 3.85934e-276 0)
(-2.29579e-270 -4.0094e-271 0)
(-7.02161e-269 -1.21124e-269 0)
(5.92421e-264 1.00872e-264 0)
(1.55749e-262 2.61576e-263 0)
(-1.1556e-257 -1.91339e-258 0)
(-2.62892e-256 -4.28969e-257 0)
(1.85285e-251 2.97831e-252 0)
(4.93496e-250 7.81162e-251 0)
(-5.49862e-245 -8.56854e-246 0)
(-2.82409e-243 -4.33116e-244 0)
(6.59614e-238 9.95336e-239 0)
(5.55305e-236 8.24224e-237 0)
(-1.31482e-230 -1.91912e-231 0)
(-7.55576e-229 -1.08427e-229 0)
(1.65328e-227 2.33204e-228 0)
(8.60279e-226 1.19253e-226 0)
(-3.28355e-222 -4.47243e-223 0)
(-2.04143e-218 -2.73173e-219 0)
(-7.55817e-217 -9.93507e-218 0)
(5.05797e-212 6.5305e-213 0)
(6.11296e-211 7.75193e-212 0)
(-1.07243e-206 -1.33567e-207 0)
(-7.76742e-206 -9.50096e-207 0)
(2.37464e-201 2.8527e-202 0)
(3.33763e-200 3.93811e-201 0)
(-1.66258e-195 -1.92695e-196 0)
(-2.47504e-194 -2.81832e-195 0)
(1.06299e-189 1.18955e-190 0)
(1.22112e-188 1.34353e-189 0)
(-2.74909e-184 -2.97556e-185 0)
(-1.81264e-181 -1.93167e-182 0)
(-1.75051e-179 -1.83854e-180 0)
(-2.69663e-178 -2.79477e-179 0)
(8.98023e-173 9.19644e-174 0)
(3.94959e-172 4.00238e-173 0)
(-1.46571e-169 -1.47193e-170 0)
(-1.17231e-168 -1.16851e-169 0)
(3.05736e-168 3.03016e-169 0)
(-2.19512e-161 -2.16805e-162 0)
(-3.28686e-159 -3.24405e-160 0)
(-6.65125e-156 -6.58166e-157 0)
(-5.43061e-154 -5.40715e-155 0)
(-1.59166e-153 -1.6005e-154 0)
(-1.1521e-153 -1.17437e-154 0)
(-3.34731e-154 -3.47296e-155 0)
(-5.16929e-155 -5.4854e-156 0)
(1.16974e-155 1.27667e-156 0)
(5.83125e-155 6.5859e-156 0)
(1.43195e-154 1.68404e-155 0)
(1.82435e-154 2.24838e-155 0)
(1.3091e-154 1.70252e-155 0)
(3.30063e-155 4.56541e-156 0)
(3.5999e-157 5.34124e-158 0)
(-1.16979e-159 -1.87835e-160 0)
(-3.65455e-161 -6.41009e-162 0)
(-1.13048e-161 -2.18762e-162 0)
(-4.80572e-162 -1.03631e-162 0)
(5.70924e-164 1.38482e-164 0)
(-1.16375e-166 -3.19958e-167 0)
(1.99082e-174 6.21261e-175 0)
(-5.01497e-182 -1.74643e-182 0)
(8.47842e-194 3.07455e-194 0)
(-4.46673e-205 -1.28778e-205 0)
(0 0 0)
(0 0 0)
(0 0 0)
(0 0 0)
(0 0 0)
(0 0 0)
(0 0 0)
(0 0 0)
(0 0 0)
(0 0 0)
(0 0 0)
(0 0 0)
(0 0 0)
(0 0 0)
(0 0 0)
(0 0 0)
(0 0 0)
(0 0 0)
(-3.52871e-317 -1.07104e-317 0)
(-8.43573e-313 -2.38597e-313 0)
(-1.17697e-308 -3.10836e-309 0)
(-1.02897e-304 -2.5124e-305 0)
(-5.79508e-301 -1.32536e-301 0)
(-2.15419e-297 -4.60087e-298 0)
(-5.42115e-294 -1.09877e-294 0)
(-9.3793e-291 -1.79356e-291 0)
(-1.12581e-287 -2.08731e-288 0)
(-9.28838e-285 -1.64662e-285 0)
(-5.11084e-282 -8.93151e-283 0)
(-1.84782e-279 -3.15576e-280 0)
(-7.94745e-278 -1.34102e-278 0)
(7.02322e-276 1.16989e-276 0)
(-9.97169e-274 -1.63943e-274 0)
(-2.72559e-269 -4.4205e-270 0)
(-5.61224e-264 -8.97111e-265 0)
(-1.88861e-262 -2.97331e-263 0)
(1.53112e-257 2.37289e-258 0)
(2.84384e-256 4.33636e-257 0)
(-8.83702e-252 -1.32512e-252 0)
(-8.02441e-250 -1.18277e-250 0)
(-2.48512e-245 -3.59918e-246 0)
(-4.19657e-244 -5.9697e-245 0)
(1.18021e-239 1.64835e-240 0)
(1.76243e-236 2.41579e-237 0)
(2.54203e-234 3.41846e-235 0)
(9.7902e-232 1.29118e-232 0)
(3.9196e-226 5.06797e-227 0)
(1.09454e-224 1.38698e-225 0)
(-5.44903e-223 -6.765e-224 0)
(-8.78409e-218 -1.06812e-218 0)
(-3.39031e-216 -4.03665e-217 0)
(2.90659e-211 3.38777e-212 0)
(4.92647e-210 5.6196e-211 0)
(-1.21205e-206 -1.35279e-207 0)
(-3.55995e-205 -3.88682e-206 0)
(2.31093e-200 2.46768e-201 0)
(3.95916e-199 4.1341e-200 0)
(-2.19764e-194 -2.24363e-195 0)
(-4.47629e-193 -4.46788e-194 0)
(2.47444e-188 2.41469e-189 0)
(3.56906e-187 3.40574e-188 0)
(-1.12236e-182 -1.04763e-183 0)
(-5.81225e-182 -5.30994e-183 0)
(2.87545e-179 2.57317e-180 0)
(1.04884e-175 9.20305e-177 0)
(2.68441e-172 2.31231e-173 0)
(9.97346e-172 8.44403e-173 0)
(-7.39943e-170 -6.16518e-171 0)
(-3.56155e-166 -2.92413e-167 0)
(-1.657e-165 -1.34268e-166 0)
(3.86905e-163 3.10075e-164 0)
(6.61472e-161 5.25779e-162 0)
(5.87249e-160 4.64548e-161 0)
(-1.74009e-153 -1.37505e-154 0)
(-3.10877e-152 -2.46319e-153 0)
(-6.40957e-152 -5.11145e-153 0)
(-4.28397e-152 -3.45319e-153 0)
(-1.12416e-152 -9.20725e-154 0)
(-1.65039e-153 -1.38198e-154 0)
(-1.16192e-155 -1.00128e-156 0)
(3.22249e-154 2.87624e-155 0)
(4.94418e-154 4.6003e-155 0)
(5.76844e-154 5.63554e-155 0)
(2.8236e-154 2.91999e-155 0)
(3.39982e-155 3.75213e-156 0)
(1.53817e-156 1.82538e-157 0)
(1.01822e-159 1.30911e-160 0)
(1.99072e-160 2.7942e-161 0)
(-1.09567e-161 -1.68846e-162 0)
(5.65177e-164 9.57568e-165 0)
(-2.44862e-165 -4.54529e-166 0)
(-3.93759e-178 -7.89317e-179 0)
(-3.47519e-182 -7.21935e-183 0)
(1.60361e-191 3.11988e-192 0)
(-1.15427e-204 -1.48001e-205 0)
(0 0 0)
(0 0 0)
(0 0 0)
(0 0 0)
(0 0 0)
(0 0 0)
(0 0 0)
(0 0 0)
(0 0 0)
(0 0 0)
(0 0 0)
(0 0 0)
(0 0 0)
(0 0 0)
(0 0 0)
(0 0 0)
(0 0 0)
(0 0 0)
(-3.49592e-316 -1.03881e-316 0)
(-7.84633e-312 -2.165e-312 0)
(-1.06235e-307 -2.72704e-308 0)
(-8.89568e-304 -2.10224e-304 0)
(-4.70931e-300 -1.03819e-300 0)
(-1.61382e-296 -3.30827e-297 0)
(-3.72331e-293 -7.21503e-294 0)
(-6.2029e-290 -1.13106e-290 0)
(-8.33244e-287 -1.46736e-287 0)
(-9.65932e-284 -1.62674e-284 0)
(-8.78339e-281 -1.45146e-281 0)
(-5.1689e-278 -8.33748e-279 0)
(-1.70843e-276 -2.71439e-277 0)
(2.22273e-273 3.48128e-274 0)
(9.08067e-272 1.40164e-272 0)
(-4.62833e-270 -7.03525e-271 0)
(-1.76989e-265 -2.64678e-266 0)
(-5.73955e-264 -8.4395e-265 0)
(4.4463e-259 6.42462e-260 0)
(9.09553e-258 1.29061e-258 0)
(-5.58295e-253 -7.77458e-254 0)
(-1.30729e-251 -1.78567e-252 0)
(1.57965e-246 2.1154e-247 0)
(1.14954e-244 1.50845e-245 0)
(-3.65741e-239 -4.70016e-240 0)
(-4.09491e-237 -5.15094e-238 0)
(1.41685e-231 1.74359e-232 0)
(1.5698e-229 1.88894e-230 0)
(-1.42544e-228 -1.67629e-229 0)
(-1.25669e-226 -1.44352e-227 0)
(6.05019e-223 6.78471e-224 0)
(2.13055e-218 2.33129e-219 0)
(2.89454e-217 3.08895e-218 0)
(-6.53136e-213 -6.79434e-214 0)
(-2.47417e-211 -2.50764e-212 0)
(-1.30439e-206 -1.2874e-207 0)
(-1.0588e-205 -1.01709e-206 0)
(1.47505e-201 1.37835e-202 0)
(7.84289e-199 7.1253e-200 0)
(1.95901e-194 1.72948e-195 0)
(2.21406e-193 1.89852e-194 0)
(-4.19481e-189 -3.49229e-190 0)
(-2.83919e-187 -2.29425e-188 0)
(-2.19217e-183 -1.71918e-184 0)
(-2.15227e-182 -1.63829e-183 0)
(7.03155e-178 5.19707e-179 0)
(6.69197e-175 4.80549e-176 0)
(2.95137e-174 2.06066e-175 0)
(-1.13004e-170 -7.67726e-172 0)
(-1.89944e-168 -1.25652e-169 0)
(-1.84758e-165 -1.19095e-166 0)
(-7.73161e-165 -4.86126e-166 0)
(4.81872e-163 2.96035e-164 0)
(8.26198e-161 4.97235e-162 0)
(2.69343e-160 1.59338e-161 0)
(-1.02497e-155 -5.98227e-157 0)
(-1.65266e-151 -9.55078e-153 0)
(-1.49156e-150 -8.56591e-152 0)
(-2.42549e-150 -1.39029e-151 0)
(-1.44801e-150 -8.3322e-152 0)
(-3.51604e-151 -2.04533e-152 0)
(-5.04227e-152 -2.98662e-153 0)
(-4.27162e-153 -2.59342e-154 0)
(5.838e-154 3.65704e-155 0)
(9.22161e-154 6.00609e-155 0)
(6.87511e-154 4.69557e-155 0)
(2.60979e-154 1.88299e-155 0)
(1.36826e-155 1.04811e-156 0)
(6.78279e-157 5.53751e-158 0)
(1.36498e-158 1.19149e-159 0)
(-1.16214e-161 -1.08184e-162 0)
(-7.88007e-164 -7.70593e-165 0)
(-5.3047e-165 -5.28717e-166 0)
(3.46895e-176 3.32316e-177 0)
(-3.11635e-176 -2.52325e-177 0)
(1.62692e-189 8.08519e-191 0)
(-3.10807e-204 -1.81398e-206 0)
(0 0 0)
(0 0 0)
(0 0 0)
(0 0 0)
(0 0 0)
(0 0 0)
(0 0 0)
(0 0 0)
(0 0 0)
(0 0 0)
(0 0 0)
(0 0 0)
(0 0 0)
(0 0 0)
(0 0 0)
(0 0 0)
(0 0 0)
(0 0 0)
(5.89515e-318 1.71435e-318 0)
(5.4886e-313 1.47667e-313 0)
(8.52186e-309 2.1248e-309 0)
(7.78352e-305 1.77876e-305 0)
(4.71932e-301 1.00178e-301 0)
(2.02973e-297 3.98894e-298 0)
(6.71439e-294 1.24235e-294 0)
(1.84799e-290 3.2086e-291 0)
(4.18744e-287 6.99434e-288 0)
(7.22426e-285 1.15303e-285 0)
(-3.91555e-282 -6.10369e-283 0)
(-5.43834e-279 -8.25795e-280 0)
(-2.5671e-276 -3.82788e-277 0)
(-1.0049e-274 -1.47527e-275 0)
(8.4633e-270 1.22234e-270 0)
(1.32937e-268 1.88666e-269 0)
(-1.72455e-264 -2.40311e-265 0)
(-5.68856e-263 -7.77938e-264 0)
(4.66436e-258 6.25515e-259 0)
(1.07634e-256 1.41423e-257 0)
(-7.5004e-252 -9.6486e-253 0)
(-1.67121e-250 -2.10353e-251 0)
(1.1639e-245 1.43247e-246 0)
(3.04583e-244 3.66283e-245 0)
(-3.83696e-239 -4.50526e-240 0)
(-2.82577e-237 -3.23726e-238 0)
(8.48738e-232 9.48013e-233 0)
(3.17413e-229 3.45418e-230 0)
(5.22188e-229 5.53212e-230 0)
(-6.94568e-224 -7.15773e-225 0)
(-7.0573e-222 -7.06883e-223 0)
(-6.99693e-219 -6.80627e-220 0)
(-4.32001e-218 -4.07775e-219 0)
(3.92853e-213 3.59527e-214 0)
(4.76564e-212 4.22475e-213 0)
(-1.8301e-207 -1.57008e-208 0)
(-2.3162e-206 -1.92114e-207 0)
(7.66902e-202 6.14321e-203 0)
(6.74875e-201 5.21521e-202 0)
(-1.38391e-196 -1.03051e-197 0)
(-6.4577e-196 -4.62816e-197 0)
(7.96719e-192 5.48933e-193 0)
(2.69553e-187 1.78345e-188 0)
(1.11543e-184 7.07998e-186 0)
(2.76128e-183 1.68007e-184 0)
(-2.45134e-180 -1.42892e-181 0)
(-1.3409e-178 -7.48566e-180 0)
(-4.98444e-178 -2.66408e-179 0)
(1.72713e-170 8.83418e-172 0)
(3.39864e-169 1.66251e-170 0)
(8.10236e-169 3.78726e-170 0)
(-6.96125e-164 -3.10744e-165 0)
(-8.41652e-163 -3.5888e-164 0)
(-2.01642e-162 -8.22451e-164 0)
(2.2441e-160 8.77644e-162 0)
(1.56893e-155 5.89896e-157 0)
(8.42923e-155 3.05377e-156 0)
(-1.03244e-149 -3.61192e-151 0)
(-5.91067e-149 -2.00369e-150 0)
(-8.50645e-149 -2.81074e-150 0)
(-4.971e-149 -1.61354e-150 0)
(-1.00977e-149 -3.24447e-151 0)
(-1.43634e-150 -4.59707e-152 0)
(-1.37623e-151 -4.41459e-153 0)
(-7.81539e-153 -2.53302e-154 0)
(1.10284e-153 3.6434e-155 0)
(1.62614e-153 5.50078e-155 0)
(1.51621e-153 5.23294e-155 0)
(2.30575e-154 8.03304e-156 0)
(2.70148e-157 9.33121e-159 0)
(4.38699e-159 1.43997e-160 0)
(-3.92987e-163 -1.09353e-164 0)
(-1.12945e-164 -1.90837e-166 0)
(8.37294e-171 -2.97354e-173 0)
(-6.2581e-175 2.41455e-176 0)
(6.25898e-189 -5.64108e-190 0)
(-5.28521e-208 6.66788e-209 0)
(0 0 0)
(0 0 0)
(0 0 0)
(0 0 0)
(0 0 0)
(0 0 0)
(0 0 0)
(0 0 0)
(0 0 0)
(0 0 0)
(0 0 0)
(0 0 0)
(0 0 0)
(0 0 0)
(0 0 0)
(0 0 0)
(0 0 0)
(0 0 0)
(-1.44263e-316 -4.10415e-317 0)
(-2.92749e-312 -7.67585e-313 0)
(-3.62282e-308 -8.76779e-309 0)
(-2.83886e-304 -6.26819e-305 0)
(-1.44582e-300 -2.95188e-301 0)
(-4.89708e-297 -9.21451e-298 0)
(-1.12928e-293 -1.99192e-294 0)
(-1.81163e-290 -2.9889e-291 0)
(-2.06458e-287 -3.26133e-288 0)
(-1.70984e-284 -2.57436e-285 0)
(-1.05188e-281 -1.53817e-282 0)
(-4.92593e-279 -6.99999e-280 0)
(-1.38627e-276 -1.93007e-277 0)
(-4.48531e-275 -6.13935e-276 0)
(4.31861e-270 5.80116e-271 0)
(1.27332e-268 1.67681e-269 0)
(-1.08875e-263 -1.40483e-264 0)
(-2.87016e-262 -3.62661e-263 0)
(2.26253e-257 2.79651e-258 0)
(5.77218e-256 6.97168e-257 0)
(-4.47225e-251 -5.27407e-252 0)
(-1.06854e-249 -1.22942e-250 0)
(6.9996e-245 7.8504e-246 0)
(1.26544e-243 1.38214e-244 0)
(-5.78658e-239 -6.14892e-240 0)
(-7.53085e-238 -7.77806e-239 0)
(3.74892e-233 3.75977e-234 0)
(1.10255e-231 1.07258e-232 0)
(-1.15264e-226 -1.08647e-227 0)
(-1.03512e-221 -9.4428e-223 0)
(-1.86886e-220 -1.64798e-221 0)
(1.40602e-218 1.19697e-219 0)
(6.43855e-216 5.28486e-217 0)
(5.58795e-214 4.41621e-215 0)
(3.51633e-211 2.67173e-212 0)
(1.24434e-208 9.07498e-210 0)
(5.03497e-207 3.51837e-208 0)
(-5.22137e-202 -3.48925e-203 0)
(-9.40916e-201 -6.00063e-202 0)
(6.44175e-196 3.91172e-197 0)
(1.55895e-194 8.99209e-196 0)
(-9.05837e-190 -4.95005e-191 0)
(-1.17923e-188 -6.08833e-190 0)
(2.36616e-184 1.15094e-185 0)
(4.28286e-181 1.95712e-182 0)
(3.1404e-180 1.34435e-181 0)
(-1.54995e-178 -6.19758e-180 0)
(-7.48586e-177 -2.78682e-178 0)
(-3.56231e-175 -1.22977e-176 0)
(-3.70449e-174 -1.17988e-175 0)
(-8.84335e-168 -2.58245e-169 0)
(-8.58242e-166 -2.28184e-167 0)
(-4.68577e-162 -1.12633e-163 0)
(-1.8441e-161 -3.98141e-163 0)
(-2.54368e-161 -4.9002e-163 0)
(2.37947e-155 4.05496e-157 0)
(-5.88072e-153 -8.75092e-155 0)
(-3.1947e-151 -4.07648e-153 0)
(-3.87914e-148 -4.15371e-150 0)
(-1.48451e-147 -1.3032e-149 0)
(-2.01705e-147 -1.40943e-149 0)
(-1.49462e-147 -7.88318e-150 0)
(-5.35214e-148 -1.90205e-150 0)
(-3.90545e-148 -6.99899e-151 0)
(-4.40163e-148 2.02679e-153 0)
(-3.68588e-148 7.00408e-151 0)
(-6.23698e-149 2.56889e-151 0)
(8.50168e-153 -5.99488e-155 0)
(4.12728e-153 -4.6295e-155 0)
(5.63421e-154 -9.70395e-156 0)
(1.78817e-155 -4.66035e-157 0)
(8.88301e-160 -3.54947e-161 0)
(-2.3725e-163 1.48481e-164 0)
(2.78168e-166 -2.73533e-167 0)
(-2.01241e-174 3.11232e-175 0)
(1.47714e-182 -3.52362e-183 0)
(2.16291e-213 -6.93823e-214 0)
(-7.53491e-52 3.90533e-52 0)
(4.0275e-36 -2.19058e-36 0)
(2.9222e-27 -1.38191e-27 0)
(1.26954e-21 -5.19698e-22 0)
(8.64039e-18 -3.17042e-18 0)
(6.79253e-15 -2.32507e-15 0)
(1.40744e-12 -4.66811e-13 0)
(1.221e-10 -4.05708e-11 0)
(5.78979e-09 -1.98268e-09 0)
(1.76131e-07 -6.36409e-08 0)
(3.79702e-06 -1.47575e-06 0)
(6.2039e-05 -2.63556e-05 0)
(0.000802773 -0.000377961 0)
(0.00845807 -0.00446753 0)
(0.0733902 -0.0439677 0)
(0.527451 -0.362056 0)
(2.93152 -2.32773 0)
(6.78531 -6.28817 0)
(6.82202 -7.43692 0)
(1.37867e-52 -3.88543e-53 0)
(3.88525e-36 -1.36876e-36 0)
(2.61143e-27 -8.97314e-28 0)
(1.20677e-21 -3.87927e-22 0)
(8.81069e-18 -2.68473e-18 0)
(8.34668e-15 -2.47906e-15 0)
(1.91705e-12 -5.70993e-13 0)
(1.812e-10 -5.5569e-11 0)
(9.18966e-09 -2.96947e-09 0)
(2.93891e-07 -1.0194e-07 0)
(6.55068e-06 -2.47558e-06 0)
(0.00010876 -4.53443e-05 0)
(0.00140384 -0.000652711 0)
(0.0144612 -0.00756886 0)
(0.120244 -0.0714367 0)
(0.819147 -0.556654 0)
(3.54449 -2.77519 0)
(5.87101 -5.33177 0)
(5.04771 -5.34799 0)
(6.19876e-52 -8.14117e-53 0)
(4.72986e-36 -9.658e-37 0)
(2.94572e-27 -6.7282e-28 0)
(1.47375e-21 -3.49332e-22 0)
(1.17293e-17 -2.84417e-18 0)
(1.04523e-14 -2.61601e-15 0)
(2.51821e-12 -6.60644e-13 0)
(2.47981e-10 -6.93154e-11 0)
(1.29955e-08 -3.92715e-09 0)
(4.25356e-07 -1.40621e-07 0)
(9.59827e-06 -3.50567e-06 0)
(0.000159348 -6.48529e-05 0)
(0.00202914 -0.000927098 0)
(0.020342 -0.0105003 0)
(0.162639 -0.0953922 0)
(1.05178 -0.704772 0)
(3.70277 -2.84936 0)
(5.05391 -4.48763 0)
(4.11952 -4.23814 0)
(2.01495e-51 -3.36275e-53 0)
(5.48458e-36 -4.18499e-37 0)
(3.53829e-27 -4.36488e-28 0)
(1.89083e-21 -2.96158e-22 0)
(1.58286e-17 -2.87222e-18 0)
(1.44993e-14 -2.94965e-15 0)
(3.61655e-12 -8.17843e-13 0)
(3.66846e-10 -9.22011e-11 0)
(1.96705e-08 -5.50686e-09 0)
(6.52632e-07 -2.04171e-07 0)
(1.47614e-05 -5.18079e-06 0)
(0.000242642 -9.59244e-05 0)
(0.00302048 -0.00134993 0)
(0.0292481 -0.0148258 0)
(0.223381 -0.128837 0)
(1.34102 -0.882985 0)
(3.75772 -2.8341 0)
(4.14038 -3.58789 0)
(3.08062 -3.0752 0)
(-1.22112e-46 -1.30433e-47 0)
(6.68898e-36 3.1067e-37 0)
(4.72201e-27 -1.18291e-28 0)
(2.75265e-21 -2.2138e-22 0)
(2.45147e-17 -3.0044e-18 0)
(2.23468e-14 -3.52057e-15 0)
(5.61097e-12 -1.06632e-12 0)
(5.77016e-10 -1.28459e-10 0)
(3.12565e-08 -8.02748e-09 0)
(1.0386e-06 -3.05364e-07 0)
(2.32722e-05 -7.80719e-06 0)
(0.000374628 -0.000143208 0)
(0.00451518 -0.00196571 0)
(0.0418846 -0.0207686 0)
(0.304371 -0.172027 0)
(1.60196 -1.0334 0)
(3.42179 -2.52339 0)
(3.32064 -2.80376 0)
(2.21309 -2.14223 0)
(-9.64054e-47 -2.79045e-47 0)
(8.34382e-36 1.45273e-36 0)
(6.78807e-27 4.61068e-28 0)
(4.43264e-21 -4.01347e-23 0)
(4.25401e-17 -2.83723e-18 0)
(3.85701e-14 -4.37243e-15 0)
(9.45054e-12 -1.46166e-12 0)
(9.68891e-10 -1.87889e-10 0)
(5.22646e-08 -1.21928e-08 0)
(1.71604e-06 -4.71117e-07 0)
(3.76241e-05 -1.20063e-05 0)
(0.000586634 -0.000215946 0)
(0.00678265 -0.00286569 0)
(0.0598011 -0.0289082 0)
(0.412637 -0.227852 0)
(1.78129 -1.1229 0)
(2.95057 -2.1233 0)
(2.63247 -2.16285 0)
(1.46828 -1.37748 0)
(4.49559 -5.79022 0)
(1.23353 -1.88271 0)
(0.0193639 -0.0351542 0)
(-7.86472e-05 0.000170501 0)
(-1.27828e-05 3.32645e-05 0)
(1.72061e-09 -5.41511e-09 0)
(1.69436e-08 -6.52096e-08 0)
(7.89314e-08 -3.77661e-07 0)
(4.96012e-07 -3.02512e-06 0)
(2.65945e-06 -2.15034e-05 0)
(1.11197e-05 -0.000127407 0)
(3.41281e-05 -0.000631257 0)
(6.24315e-05 -0.00266144 0)
(-4.93492e-05 -0.00982069 0)
(-0.00104035 -0.0327203 0)
(-0.00563693 -0.0985331 0)
(-0.0221995 -0.272116 0)
(-0.0735379 -0.69902 0)
(-0.216366 -1.68583 0)
(-0.58066 -3.83838 0)
(-1.4433 -8.28146 0)
(-3.35375 -16.9683 0)
(-7.32247 -33.0303 0)
(-15.068 -61.071 0)
(-29.275 -107.207 0)
(-53.701 -178.461 0)
(-92.6668 -280.613 0)
(-149.119 -413.539 0)
(-220.946 -564.979 0)
(-297.621 -707.776 0)
(-369.528 -824.892 0)
(-432.364 -914.416 0)
(-481.889 -974.216 0)
(-516.234 -1005.85 0)
(-535.24 -1012.44 0)
(-540.557 -998.717 0)
(-537.093 -973.772 0)
(-531.995 -949.891 0)
(-525.666 -927.179 0)
(-518.329 -905.587 0)
(-510.128 -885.062 0)
(-501.176 -865.528 0)
(-491.582 -846.941 0)
(-481.415 -829.252 0)
(-470.732 -812.407 0)
(-459.592 -796.364 0)
(-448.051 -781.086 0)
(-436.14 -766.521 0)
(-423.9 -752.646 0)
(-411.357 -739.424 0)
(-398.543 -726.832 0)
(-385.481 -714.844 0)
(-372.186 -703.433 0)
(-358.675 -692.581 0)
(-344.961 -682.259 0)
(-331.059 -672.455 0)
(-316.985 -663.157 0)
(-302.746 -654.345 0)
(-288.355 -646.011 0)
(-273.817 -638.134 0)
(-259.146 -630.715 0)
(-244.355 -623.749 0)
(-229.44 -617.219 0)
(-214.415 -611.13 0)
(-199.291 -605.48 0)
(-184.068 -600.267 0)
(-168.76 -595.496 0)
(-153.375 -591.165 0)
(-137.925 -587.285 0)
(-122.427 -583.865 0)
(-106.885 -580.913 0)
(-91.3192 -578.446 0)
(-75.751 -576.482 0)
(-60.2013 -575.034 0)
(-44.7037 -574.133 0)
(-29.2807 -573.804 0)
(-13.9766 -574.074 0)
(1.15941 -574.985 0)
(16.0687 -576.569 0)
(30.6749 -578.871 0)
(44.899 -581.935 0)
(58.6284 -585.808 0)
(71.7304 -590.533 0)
(84.0429 -596.15 0)
(95.3625 -602.684 0)
(105.455 -610.146 0)
(114.021 -618.5 0)
(120.71 -627.65 0)
(125.118 -637.412 0)
(126.789 -647.448 0)
(125.254 -657.198 0)
(120.115 -665.811 0)
(111.181 -672.047 0)
(98.7031 -674.248 0)
(83.7151 -670.415 0)
(68.3407 -658.567 0)
(55.9024 -637.389 0)
(2.54926 -3.15988 0)
(0.388087 -0.563844 0)
(-0.000194959 0.000332931 0)
(-7.52728e-05 0.000151533 0)
(-3.39038e-06 8.07686e-06 0)
(-6.67219e-11 1.89141e-10 0)
(1.96039e-13 -6.66617e-13 0)
(9.0491e-14 -3.73483e-13 0)
(6.29534e-13 -3.20872e-12 0)
(7.27052e-12 -4.69671e-11 0)
(7.38308e-11 -6.29516e-10 0)
(6.09117e-10 -7.34232e-09 0)
(3.7394e-09 -7.29369e-08 0)
(1.33271e-08 -6.1317e-07 0)
(-2.65005e-08 -4.38138e-06 0)
(-8.84801e-07 -2.72793e-05 0)
(-8.64886e-06 -0.000149787 0)
(-6.1659e-05 -0.00074959 0)
(-0.000372142 -0.00350227 0)
(-0.00197785 -0.0152127 0)
(-0.00928309 -0.0603582 0)
(-0.0388647 -0.218451 0)
(-0.143591 -0.708546 0)
(-0.473178 -2.07197 0)
(-1.41738 -5.54964 0)
(-3.91496 -13.7827 0)
(-10.029 -31.8877 0)
(-23.701 -68.3607 0)
(-50.9987 -134.163 0)
(-98.7157 -238.62 0)
(-164.348 -368.375 0)
(-238.091 -499.757 0)
(-311.959 -619.312 0)
(-379.712 -719.794 0)
(-436.764 -797.579 0)
(-480.58 -852.071 0)
(-507.645 -879.595 0)
(-516.539 -878.941 0)
(-513.83 -861.814 0)
(-507.077 -840.748 0)
(-499.432 -820.698 0)
(-490.997 -801.558 0)
(-481.889 -783.301 0)
(-472.184 -765.914 0)
(-461.937 -749.341 0)
(-451.207 -733.53 0)
(-440.059 -718.46 0)
(-428.524 -704.086 0)
(-416.642 -690.385 0)
(-404.441 -677.323 0)
(-391.954 -664.876 0)
(-379.209 -653.022 0)
(-366.215 -641.732 0)
(-352.996 -630.992 0)
(-339.565 -620.78 0)
(-325.936 -611.077 0)
(-312.128 -601.872 0)
(-298.144 -593.146 0)
(-284.004 -584.891 0)
(-269.715 -577.089 0)
(-255.287 -569.741 0)
(-240.734 -562.842 0)
(-226.055 -556.376 0)
(-211.266 -550.345 0)
(-196.378 -544.748 0)
(-181.39 -539.583 0)
(-166.318 -534.855 0)
(-151.172 -530.562 0)
(-135.965 -526.712 0)
(-120.715 -523.315 0)
(-105.428 -520.379 0)
(-90.1252 -517.918 0)
(-74.8285 -515.947 0)
(-59.5618 -514.478 0)
(-44.3599 -513.54 0)
(-29.2475 -513.155 0)
(-14.2704 -513.344 0)
(0.520557 -514.145 0)
(15.0649 -515.584 0)
(29.2852 -517.697 0)
(43.1021 -520.521 0)
(56.4032 -524.089 0)
(69.059 -528.433 0)
(80.9121 -533.572 0)
(91.7699 -539.515 0)
(101.415 -546.248 0)
(109.576 -553.709 0)
(115.944 -561.775 0)
(120.181 -570.241 0)
(121.922 -578.752 0)
(120.829 -586.772 0)
(116.664 -593.517 0)
(109.42 -597.915 0)
(99.5064 -598.609 0)
(87.9957 -594.069 0)
(76.8117 -582.896 0)
(68.7546 -564.311 0)
(1.85019 -2.20875 0)
(0.199645 -0.276817 0)
(-0.000135644 0.000218879 0)
(-4.70818e-05 8.86049e-05 0)
(-1.35798e-06 2.9891e-06 0)
(-3.54569e-11 9.16593e-11 0)
(4.87913e-13 -1.4902e-12 0)
(2.74891e-14 -1.0006e-13 0)
(7.7372e-14 -3.39888e-13 0)
(8.81092e-13 -4.75732e-12 0)
(9.15274e-12 -6.24179e-11 0)
(8.04334e-11 -7.22885e-10 0)
(5.68035e-10 -7.23148e-09 0)
(2.98646e-09 -6.21915e-08 0)
(8.86506e-09 -4.5987e-07 0)
(-2.34407e-08 -2.91894e-06 0)
(-5.60303e-07 -1.63742e-05 0)
(-5.01978e-06 -8.42572e-05 0)
(-3.46199e-05 -0.000410294 0)
(-0.000206136 -0.00189306 0)
(-0.00106778 -0.00800541 0)
(-0.00489605 -0.030962 0)
(-0.0199141 -0.108566 0)
(-0.071504 -0.341178 0)
(-0.232433 -0.981164 0)
(-0.700539 -2.63691 0)
(-1.98596 -6.70653 0)
(-5.31535 -16.1873 0)
(-13.3431 -36.8322 0)
(-30.6131 -77.0413 0)
(-61.2885 -141.607 0)
(-106.953 -228.738 0)
(-163.486 -326.565 0)
(-226.257 -426.072 0)
(-289.261 -518.306 0)
(-347.745 -598.121 0)
(-398.221 -662.819 0)
(-438.286 -710.889 0)
(-467.207 -742.729 0)
(-482.346 -754.996 0)
(-485.571 -751.03 0)
(-480.97 -737.267 0)
(-472.377 -719.42 0)
(-463.117 -702.351 0)
(-453.285 -686.059 0)
(-442.951 -670.496 0)
(-432.183 -655.641 0)
(-421.013 -641.464 0)
(-409.48 -627.945 0)
(-397.615 -615.052 0)
(-385.447 -602.755 0)
(-373.011 -591.042 0)
(-360.315 -579.88 0)
(-347.383 -569.258 0)
(-334.23 -559.159 0)
(-320.869 -549.561 0)
(-307.322 -540.453 0)
(-293.592 -531.814 0)
(-279.699 -523.642 0)
(-265.654 -515.92 0)
(-251.466 -508.643 0)
(-237.15 -501.811 0)
(-222.705 -495.409 0)
(-208.148 -489.437 0)
(-193.492 -483.894 0)
(-178.736 -478.777 0)
(-163.898 -474.089 0)
(-148.988 -469.831 0)
(-134.019 -466.011 0)
(-119.013 -462.636 0)
(-103.975 -459.71 0)
(-88.9293 -457.249 0)
(-73.8975 -455.266 0)
(-58.9055 -453.772 0)
(-43.9892 -452.79 0)
(-29.175 -452.34 0)
(-14.5103 -452.44 0)
(-0.0467592 -453.121 0)
(14.1541 -454.405 0)
(28.0143 -456.32 0)
(41.4551 -458.894 0)
(54.3658 -462.148 0)
(66.6208 -466.103 0)
(78.0696 -470.765 0)
(88.5312 -476.121 0)
(97.8059 -482.143 0)
(105.651 -488.746 0)
(111.799 -495.792 0)
(115.969 -503.062 0)
(117.88 -510.206 0)
(117.297 -516.722 0)
(114.109 -521.91 0)
(108.435 -524.865 0)
(100.775 -524.496 0)
(92.1821 -519.655 0)
(84.375 -509.382 0)
(79.7248 -493.284 0)
(1.10295 -1.26885 0)
(0.052354 -0.069419 0)
(-0.000132887 0.000203356 0)
(-3.35874e-05 5.94091e-05 0)
(-6.9606e-08 1.42604e-07 0)
(5.27482e-12 -1.25555e-11 0)
(1.01044e-12 -2.80698e-12 0)
(2.27089e-15 -7.41089e-15 0)
(6.01115e-15 -2.32633e-14 0)
(6.64597e-14 -3.09148e-13 0)
(7.00416e-13 -3.99314e-12 0)
(6.44086e-12 -4.63237e-11 0)
(4.9636e-11 -4.71165e-10 0)
(3.08215e-10 -4.17237e-09 0)
(1.42152e-09 -3.21501e-08 0)
(3.41554e-09 -2.13036e-07 0)
(-1.34968e-08 -1.22803e-06 0)
(-2.43043e-07 -6.54344e-06 0)
(-2.10341e-06 -3.35497e-05 0)
(-1.48065e-05 -0.000168428 0)
(-8.76799e-05 -0.000775604 0)
(-0.000450841 -0.00325822 0)
(-0.00203186 -0.0123781 0)
(-0.00799138 -0.041914 0)
(-0.0279816 -0.128252 0)
(-0.09036 -0.365903 0)
(-0.274492 -0.990277 0)
(-0.785413 -2.54174 0)
(-2.10121 -6.13668 0)
(-5.23232 -13.8712 0)
(-12.1561 -29.4285 0)
(-26.3062 -58.5218 0)
(-52.5327 -108.136 0)
(-91.0212 -174.669 0)
(-139.322 -251.234 0)
(-192.664 -329.137 0)
(-247.528 -403.855 0)
(-299.263 -469.918 0)
(-344.819 -524.772 0)
(-382.417 -567.631 0)
(-411.293 -598.662 0)
(-431.742 -619.085 0)
(-443.383 -628.779 0)
(-446.139 -627.753 0)
(-442.562 -619.604 0)
(-434.703 -607.091 0)
(-424.425 -592.622 0)
(-413.613 -578.657 0)
(-402.42 -565.329 0)
(-390.879 -552.608 0)
(-379.024 -540.468 0)
(-366.889 -528.898 0)
(-354.488 -517.873 0)
(-341.838 -507.375 0)
(-328.958 -497.393 0)
(-315.86 -487.903 0)
(-302.568 -478.894 0)
(-289.089 -470.349 0)
(-275.44 -462.26 0)
(-261.637 -454.621 0)
(-247.685 -447.419 0)
(-233.603 -440.654 0)
(-219.39 -434.317 0)
(-205.062 -428.404 0)
(-190.634 -422.915 0)
(-176.108 -417.846 0)
(-161.499 -413.198 0)
(-146.821 -408.974 0)
(-132.087 -405.181 0)
(-117.32 -401.823 0)
(-102.525 -398.906 0)
(-87.7292 -396.441 0)
(-72.9548 -394.441 0)
(-58.2286 -392.916 0)
(-43.5876 -391.885 0)
(-29.0591 -391.363 0)
(-14.6918 -391.367 0)
(-0.537891 -391.921 0)
(13.3408 -393.042 0)
(26.8667 -394.751 0)
(39.9621 -397.067 0)
(52.5191 -400.003 0)
(64.4168 -403.568 0)
(75.5129 -407.754 0)
(85.6385 -412.536 0)
(94.6122 -417.867 0)
(102.219 -423.654 0)
(108.229 -429.744 0)
(112.414 -435.918 0)
(114.562 -441.842 0)
(114.522 -447.057 0)
(112.276 -450.953 0)
(108.026 -452.78 0)
(102.314 -451.683 0)
(96.1407 -446.819 0)
(91.0216 -437.559 0)
(88.9761 -423.806 0)
(0.616525 -0.683813 0)
(0.00720863 -0.00915606 0)
(-0.000131422 0.000191299 0)
(-1.98175e-05 3.30904e-05 0)
(-2.11253e-09 4.05231e-09 0)
(-4.7009e-11 1.03827e-10 0)
(1.67898e-14 -4.28438e-14 0)
(2.43037e-15 -7.20127e-15 0)
(3.70386e-16 -1.28362e-15 0)
(3.36837e-15 -1.37945e-14 0)
(3.57774e-14 -1.75682e-13 0)
(3.38325e-13 -2.03405e-12 0)
(2.75693e-12 -2.09327e-11 0)
(1.88498e-11 -1.89783e-10 0)
(1.04119e-10 -1.51341e-09 0)
(4.1574e-10 -1.04504e-08 0)
(7.42299e-10 -6.20338e-08 0)
(-5.09595e-09 -3.41164e-07 0)
(-7.6043e-08 -1.84597e-06 0)
(-6.99989e-07 -1.04379e-05 0)
(-4.98891e-06 -5.37635e-05 0)
(-2.96564e-05 -0.000249977 0)
(-0.00015098 -0.00104237 0)
(-0.00065544 -0.00381825 0)
(-0.00248785 -0.0124811 0)
(-0.00867468 -0.0380354 0)
(-0.0287618 -0.111458 0)
(-0.0909378 -0.31425 0)
(-0.26937 -0.836359 0)
(-0.738191 -2.07329 0)
(-1.86952 -4.77977 0)
(-4.38715 -10.2716 0)
(-9.57609 -20.6503 0)
(-19.5782 -39.1091 0)
(-37.6529 -70.0807 0)
(-66.1601 -115.436 0)
(-103.879 -170.994 0)
(-148.089 -231.514 0)
(-194.21 -290.297 0)
(-239.497 -344.541 0)
(-280.74 -391.129 0)
(-316.071 -428.896 0)
(-344.943 -458.296 0)
(-367.049 -479.762 0)
(-382.645 -494.12 0)
(-392.224 -502.265 0)
(-396.101 -504.685 0)
(-394.508 -501.588 0)
(-389.132 -495.002 0)
(-381.171 -486.336 0)
(-371.433 -476.513 0)
(-360.465 -466.131 0)
(-348.68 -455.642 0)
(-336.358 -445.334 0)
(-323.747 -435.475 0)
(-310.909 -426.103 0)
(-297.87 -417.2 0)
(-284.636 -408.749 0)
(-271.229 -400.748 0)
(-257.662 -393.19 0)
(-243.945 -386.067 0)
(-230.093 -379.371 0)
(-216.108 -373.099 0)
(-202.007 -367.246 0)
(-187.804 -361.811 0)
(-173.503 -356.789 0)
(-159.121 -352.183 0)
(-144.67 -347.991 0)
(-130.167 -344.222 0)
(-115.633 -340.881 0)
(-101.076 -337.969 0)
(-86.5232 -335.498 0)
(-71.9982 -333.477 0)
(-57.5287 -331.915 0)
(-43.1521 -330.831 0)
(-28.8964 -330.233 0)
(-14.8114 -330.134 0)
(-0.949187 -330.555 0)
(12.6286 -331.507 0)
(25.8455 -333.005 0)
(38.6253 -335.06 0)
(50.8639 -337.676 0)
(62.4457 -340.851 0)
(73.2369 -344.568 0)
(83.0813 -348.79 0)
(91.8155 -353.459 0)
(99.2499 -358.471 0)
(105.189 -363.672 0)
(109.451 -368.846 0)
(111.878 -373.684 0)
(112.388 -377.773 0)
(111.025 -380.596 0)
(108.042 -381.544 0)