/*--------------------------------*- C++ -*----------------------------------*\
  =========                 |
  \\      /  F ield         | OpenFOAM: The Open Source CFD Toolbox
   \\    /   O peration     | Website:  https://openfoam.org
    \\  /    A nd           | Version:  7
     \\/     M anipulation  |
\*---------------------------------------------------------------------------*/
FoamFile
{
    version     2.0;
    format      ascii;
    class       volScalarField;
    location    "1e-12/dielectric";
    object      voltDrho;
}
// * * * * * * * * * * * * * * * * * * * * * * * * * * * * * * * * * * * * * //

dimensions      [1 2 -3 0 0 -1 0];

internalField   uniform 0;

boundaryField
{
    leftBoundary
    {
        type            zeroGradient;
    }
    rightBoundary
    {
        type            zeroGradient;
    }
    ground
    {
        type            fixedValue;
        value           uniform 0;
    }
    frontAndBack
    {
        type            empty;
    }
    highVoltage
    {
        type            fixedValue;
        value           nonuniform 0();
    }
    dielectric_to_region0
    {
        type            compressible::turbulentTemperatureCoupledBaffleMixed;
        refValue        uniform 0;
        refGradient     uniform 0;
        valueFraction   nonuniform List<scalar> 
100
(
0.25641
0.25641
0.25641
0.25641
0.25641
0.25641
0.25641
0.25641
0.25641
0.25641
0.25641
0.25641
0.25641
0.25641
0.25641
0.25641
0.25641
0.25641
0.25641
0.25641
0.25641
0.25641
0.25641
0.25641
0.25641
0.25641
0.25641
0.25641
0.25641
0.25641
0.25641
0.25641
0.25641
0.25641
0.25641
0.25641
0.25641
0.25641
0.25641
0.25641
0.25641
0.25641
0.25641
0.25641
0.25641
0.25641
0.25641
0.25641
0.25641
0.25641
0.25641
0.25641
0.25641
0.25641
0.25641
0.25641
0.25641
0.25641
0.25641
0.25641
0.25641
0.25641
0.25641
0.25641
0.25641
0.25641
0.25641
0.25641
0.25641
0.25641
0.25641
0.25641
0.25641
0.25641
0.25641
0.25641
0.25641
0.25641
0.25641
0.25641
0.25641
0.25641
0.25641
0.25641
0.25641
0.25641
0.25641
0.25641
0.25641
0.25641
0.25641
0.25641
0.25641
0.25641
0.25641
0.25641
0.25641
0.25641
0.25641
0.25641
)
;
        value           uniform 0;
        Tnbr            voltArho;
        thicknessLayers 0();
        kappaLayers     0();
        kappaMethod     lookup;
        kappa           epsilonD;
        alphaAni        Anialpha;
    }
    procBoundary0to1
    {
        type            processor;
        value           uniform 0;
    }
    procBoundary0to3
    {
        type            processor;
        value           uniform 0;
    }
}


// ************************************************************************* //
