/*--------------------------------*- C++ -*----------------------------------*\
  =========                 |
  \\      /  F ield         | OpenFOAM: The Open Source CFD Toolbox
   \\    /   O peration     | Website:  https://openfoam.org
    \\  /    A nd           | Version:  7
     \\/     M anipulation  |
\*---------------------------------------------------------------------------*/
FoamFile
{
    version     2.0;
    format      ascii;
    class       volScalarField;
    location    "1.3e-12";
    object      ne;
}
// * * * * * * * * * * * * * * * * * * * * * * * * * * * * * * * * * * * * * //

dimensions      [0 -3 0 0 0 0 0];

internalField   nonuniform List<scalar> 
14934
(
1.05902e+13
1.05783e+13
1.0567e+13
1.05561e+13
1.05455e+13
1.05353e+13
1.05254e+13
1.05158e+13
1.05065e+13
1.04975e+13
1.04887e+13
1.04802e+13
1.04718e+13
1.04638e+13
1.04559e+13
1.04482e+13
1.04407e+13
1.04334e+13
1.04263e+13
1.04194e+13
1.04126e+13
1.0406e+13
1.03995e+13
1.03932e+13
1.0387e+13
1.0381e+13
1.03751e+13
1.03693e+13
1.03637e+13
1.03582e+13
1.03528e+13
1.03475e+13
1.03423e+13
1.03373e+13
1.03323e+13
1.03275e+13
1.03227e+13
1.0318e+13
1.03135e+13
1.0309e+13
1.03046e+13
1.03003e+13
1.02961e+13
1.02919e+13
1.02878e+13
1.02839e+13
1.02799e+13
1.02761e+13
1.02723e+13
1.02686e+13
1.0265e+13
1.02614e+13
1.02579e+13
1.02545e+13
1.02511e+13
1.02478e+13
1.02445e+13
1.02413e+13
1.02381e+13
1.0235e+13
1.0232e+13
1.0229e+13
1.02261e+13
1.02232e+13
1.02203e+13
1.02175e+13
1.02148e+13
1.02121e+13
1.02094e+13
1.02068e+13
1.02042e+13
1.02017e+13
1.01992e+13
1.01967e+13
1.01943e+13
1.01919e+13
1.01896e+13
1.01873e+13
1.0185e+13
1.01828e+13
1.01806e+13
1.01784e+13
1.01763e+13
1.01742e+13
1.01722e+13
1.01701e+13
1.01681e+13
1.01661e+13
1.01641e+13
1.01619e+13
1.01595e+13
1.01569e+13
1.0154e+13
1.01511e+13
1.01483e+13
1.01459e+13
1.01443e+13
1.05888e+13
1.05771e+13
1.0566e+13
1.05552e+13
1.05447e+13
1.05346e+13
1.05248e+13
1.05152e+13
1.0506e+13
1.0497e+13
1.04882e+13
1.04797e+13
1.04714e+13
1.04633e+13
1.04554e+13
1.04478e+13
1.04403e+13
1.0433e+13
1.04259e+13
1.0419e+13
1.04122e+13
1.04056e+13
1.03991e+13
1.03928e+13
1.03867e+13
1.03806e+13
1.03747e+13
1.0369e+13
1.03633e+13
1.03578e+13
1.03524e+13
1.03471e+13
1.0342e+13
1.03369e+13
1.03319e+13
1.03271e+13
1.03223e+13
1.03177e+13
1.03131e+13
1.03086e+13
1.03042e+13
1.02999e+13
1.02957e+13
1.02915e+13
1.02874e+13
1.02834e+13
1.02795e+13
1.02757e+13
1.02719e+13
1.02682e+13
1.02646e+13
1.0261e+13
1.02575e+13
1.0254e+13
1.02506e+13
1.02473e+13
1.0244e+13
1.02408e+13
1.02377e+13
1.02346e+13
1.02315e+13
1.02285e+13
1.02256e+13
1.02227e+13
1.02198e+13
1.0217e+13
1.02143e+13
1.02116e+13
1.02089e+13
1.02063e+13
1.02037e+13
1.02011e+13
1.01986e+13
1.01962e+13
1.01938e+13
1.01914e+13
1.0189e+13
1.01867e+13
1.01845e+13
1.01822e+13
1.018e+13
1.01778e+13
1.01757e+13
1.01736e+13
1.01715e+13
1.01695e+13
1.01675e+13
1.01655e+13
1.01634e+13
1.01612e+13
1.01589e+13
1.01563e+13
1.01535e+13
1.01506e+13
1.01479e+13
1.01456e+13
1.01442e+13
1.05848e+13
1.05738e+13
1.05632e+13
1.05528e+13
1.05426e+13
1.05327e+13
1.0523e+13
1.05136e+13
1.05045e+13
1.04956e+13
1.04869e+13
1.04784e+13
1.04702e+13
1.04622e+13
1.04544e+13
1.04467e+13
1.04393e+13
1.0432e+13
1.0425e+13
1.04181e+13
1.04113e+13
1.04047e+13
1.03983e+13
1.0392e+13
1.03858e+13
1.03798e+13
1.0374e+13
1.03682e+13
1.03626e+13
1.03571e+13
1.03517e+13
1.03464e+13
1.03412e+13
1.03362e+13
1.03312e+13
1.03264e+13
1.03216e+13
1.0317e+13
1.03124e+13
1.03079e+13
1.03035e+13
1.02992e+13
1.0295e+13
1.02908e+13
1.02868e+13
1.02828e+13
1.02789e+13
1.0275e+13
1.02712e+13
1.02675e+13
1.02639e+13
1.02603e+13
1.02568e+13
1.02534e+13
1.025e+13
1.02466e+13
1.02434e+13
1.02402e+13
1.0237e+13
1.02339e+13
1.02308e+13
1.02278e+13
1.02249e+13
1.0222e+13
1.02191e+13
1.02163e+13
1.02136e+13
1.02108e+13
1.02082e+13
1.02055e+13
1.0203e+13
1.02004e+13
1.01979e+13
1.01955e+13
1.0193e+13
1.01906e+13
1.01883e+13
1.0186e+13
1.01837e+13
1.01815e+13
1.01793e+13
1.01771e+13
1.01749e+13
1.01728e+13
1.01708e+13
1.01687e+13
1.01667e+13
1.01647e+13
1.01626e+13
1.01604e+13
1.01581e+13
1.01555e+13
1.01528e+13
1.01501e+13
1.01476e+13
1.01455e+13
1.0144e+13
1.05786e+13
1.05686e+13
1.05588e+13
1.05489e+13
1.05391e+13
1.05296e+13
1.05202e+13
1.0511e+13
1.05021e+13
1.04933e+13
1.04848e+13
1.04765e+13
1.04683e+13
1.04604e+13
1.04527e+13
1.04451e+13
1.04378e+13
1.04306e+13
1.04236e+13
1.04167e+13
1.041e+13
1.04035e+13
1.03971e+13
1.03908e+13
1.03847e+13
1.03787e+13
1.03728e+13
1.03671e+13
1.03615e+13
1.0356e+13
1.03507e+13
1.03454e+13
1.03403e+13
1.03352e+13
1.03303e+13
1.03255e+13
1.03207e+13
1.03161e+13
1.03115e+13
1.0307e+13
1.03027e+13
1.02984e+13
1.02941e+13
1.029e+13
1.02859e+13
1.0282e+13
1.02781e+13
1.02742e+13
1.02704e+13
1.02667e+13
1.02631e+13
1.02595e+13
1.0256e+13
1.02526e+13
1.02492e+13
1.02459e+13
1.02426e+13
1.02394e+13
1.02363e+13
1.02331e+13
1.02301e+13
1.02271e+13
1.02242e+13
1.02213e+13
1.02184e+13
1.02156e+13
1.02128e+13
1.02101e+13
1.02075e+13
1.02048e+13
1.02022e+13
1.01997e+13
1.01972e+13
1.01947e+13
1.01923e+13
1.01899e+13
1.01876e+13
1.01853e+13
1.0183e+13
1.01808e+13
1.01785e+13
1.01764e+13
1.01742e+13
1.01721e+13
1.01701e+13
1.0168e+13
1.0166e+13
1.0164e+13
1.01619e+13
1.01597e+13
1.01574e+13
1.01549e+13
1.01522e+13
1.01497e+13
1.01474e+13
1.01455e+13
1.0144e+13
1.05705e+13
1.05616e+13
1.05527e+13
1.05435e+13
1.05343e+13
1.05252e+13
1.05162e+13
1.05074e+13
1.04987e+13
1.04902e+13
1.04819e+13
1.04737e+13
1.04658e+13
1.0458e+13
1.04504e+13
1.04429e+13
1.04357e+13
1.04286e+13
1.04216e+13
1.04148e+13
1.04082e+13
1.04017e+13
1.03954e+13
1.03892e+13
1.03831e+13
1.03772e+13
1.03714e+13
1.03657e+13
1.03601e+13
1.03547e+13
1.03493e+13
1.03441e+13
1.0339e+13
1.0334e+13
1.03291e+13
1.03243e+13
1.03195e+13
1.03149e+13
1.03104e+13
1.03059e+13
1.03016e+13
1.02973e+13
1.02931e+13
1.0289e+13
1.02849e+13
1.0281e+13
1.02771e+13
1.02732e+13
1.02695e+13
1.02658e+13
1.02622e+13
1.02586e+13
1.02551e+13
1.02517e+13
1.02483e+13
1.0245e+13
1.02417e+13
1.02385e+13
1.02354e+13
1.02323e+13
1.02292e+13
1.02263e+13
1.02233e+13
1.02204e+13
1.02176e+13
1.02148e+13
1.0212e+13
1.02093e+13
1.02066e+13
1.0204e+13
1.02014e+13
1.01989e+13
1.01964e+13
1.01939e+13
1.01915e+13
1.01891e+13
1.01868e+13
1.01845e+13
1.01822e+13
1.018e+13
1.01778e+13
1.01756e+13
1.01735e+13
1.01714e+13
1.01693e+13
1.01673e+13
1.01653e+13
1.01632e+13
1.01612e+13
1.0159e+13
1.01567e+13
1.01542e+13
1.01516e+13
1.01492e+13
1.01471e+13
1.01454e+13
1.01441e+13
1.05606e+13
1.0553e+13
1.0545e+13
1.05367e+13
1.05282e+13
1.05196e+13
1.05111e+13
1.05027e+13
1.04944e+13
1.04862e+13
1.04781e+13
1.04702e+13
1.04624e+13
1.04548e+13
1.04474e+13
1.04401e+13
1.0433e+13
1.0426e+13
1.04191e+13
1.04124e+13
1.04059e+13
1.03995e+13
1.03932e+13
1.03871e+13
1.03811e+13
1.03752e+13
1.03695e+13
1.03638e+13
1.03583e+13
1.03529e+13
1.03476e+13
1.03425e+13
1.03374e+13
1.03324e+13
1.03275e+13
1.03227e+13
1.03181e+13
1.03135e+13
1.0309e+13
1.03045e+13
1.03002e+13
1.02959e+13
1.02918e+13
1.02877e+13
1.02836e+13
1.02797e+13
1.02758e+13
1.0272e+13
1.02683e+13
1.02646e+13
1.0261e+13
1.02575e+13
1.0254e+13
1.02506e+13
1.02472e+13
1.02439e+13
1.02406e+13
1.02375e+13
1.02343e+13
1.02312e+13
1.02282e+13
1.02252e+13
1.02223e+13
1.02194e+13
1.02166e+13
1.02138e+13
1.0211e+13
1.02083e+13
1.02057e+13
1.02031e+13
1.02005e+13
1.0198e+13
1.01955e+13
1.0193e+13
1.01906e+13
1.01882e+13
1.01859e+13
1.01836e+13
1.01813e+13
1.01791e+13
1.01769e+13
1.01747e+13
1.01726e+13
1.01705e+13
1.01684e+13
1.01664e+13
1.01644e+13
1.01624e+13
1.01603e+13
1.01582e+13
1.01559e+13
1.01535e+13
1.0151e+13
1.01487e+13
1.01466e+13
1.01451e+13
1.01439e+13
1.05492e+13
1.05428e+13
1.05358e+13
1.05284e+13
1.05207e+13
1.05128e+13
1.05049e+13
1.0497e+13
1.0489e+13
1.04812e+13
1.04735e+13
1.04658e+13
1.04583e+13
1.04509e+13
1.04437e+13
1.04366e+13
1.04296e+13
1.04228e+13
1.04161e+13
1.04095e+13
1.04031e+13
1.03968e+13
1.03906e+13
1.03846e+13
1.03787e+13
1.03729e+13
1.03672e+13
1.03616e+13
1.03562e+13
1.03508e+13
1.03456e+13
1.03405e+13
1.03354e+13
1.03305e+13
1.03257e+13
1.03209e+13
1.03163e+13
1.03117e+13
1.03072e+13
1.03029e+13
1.02986e+13
1.02943e+13
1.02902e+13
1.02861e+13
1.02821e+13
1.02782e+13
1.02743e+13
1.02706e+13
1.02668e+13
1.02632e+13
1.02596e+13
1.02561e+13
1.02526e+13
1.02492e+13
1.02459e+13
1.02426e+13
1.02394e+13
1.02362e+13
1.02331e+13
1.023e+13
1.0227e+13
1.0224e+13
1.02211e+13
1.02182e+13
1.02154e+13
1.02126e+13
1.02099e+13
1.02072e+13
1.02045e+13
1.02019e+13
1.01994e+13
1.01969e+13
1.01944e+13
1.01919e+13
1.01895e+13
1.01872e+13
1.01848e+13
1.01825e+13
1.01803e+13
1.01781e+13
1.01759e+13
1.01737e+13
1.01716e+13
1.01695e+13
1.01674e+13
1.01654e+13
1.01634e+13
1.01614e+13
1.01594e+13
1.01573e+13
1.01551e+13
1.01528e+13
1.01504e+13
1.01481e+13
1.01462e+13
1.01445e+13
1.01432e+13
1.05365e+13
1.05312e+13
1.05254e+13
1.05189e+13
1.0512e+13
1.05049e+13
1.04976e+13
1.04902e+13
1.04827e+13
1.04753e+13
1.0468e+13
1.04607e+13
1.04534e+13
1.04463e+13
1.04393e+13
1.04324e+13
1.04256e+13
1.0419e+13
1.04124e+13
1.0406e+13
1.03997e+13
1.03936e+13
1.03875e+13
1.03816e+13
1.03758e+13
1.03701e+13
1.03645e+13
1.0359e+13
1.03536e+13
1.03483e+13
1.03432e+13
1.03381e+13
1.03331e+13
1.03283e+13
1.03235e+13
1.03188e+13
1.03142e+13
1.03097e+13
1.03053e+13
1.03009e+13
1.02967e+13
1.02925e+13
1.02884e+13
1.02843e+13
1.02804e+13
1.02765e+13
1.02726e+13
1.02689e+13
1.02652e+13
1.02616e+13
1.0258e+13
1.02545e+13
1.02511e+13
1.02477e+13
1.02444e+13
1.02411e+13
1.02379e+13
1.02348e+13
1.02317e+13
1.02286e+13
1.02256e+13
1.02227e+13
1.02198e+13
1.02169e+13
1.02141e+13
1.02113e+13
1.02086e+13
1.02059e+13
1.02033e+13
1.02007e+13
1.01982e+13
1.01957e+13
1.01932e+13
1.01908e+13
1.01884e+13
1.0186e+13
1.01837e+13
1.01814e+13
1.01792e+13
1.0177e+13
1.01748e+13
1.01726e+13
1.01705e+13
1.01685e+13
1.01664e+13
1.01644e+13
1.01624e+13
1.01605e+13
1.01585e+13
1.01564e+13
1.01543e+13
1.0152e+13
1.01498e+13
1.01476e+13
1.01457e+13
1.01439e+13
1.01425e+13
1.05227e+13
1.05186e+13
1.05137e+13
1.05082e+13
1.05022e+13
1.04958e+13
1.04892e+13
1.04824e+13
1.04755e+13
1.04685e+13
1.04616e+13
1.04547e+13
1.04478e+13
1.0441e+13
1.04342e+13
1.04276e+13
1.0421e+13
1.04146e+13
1.04082e+13
1.0402e+13
1.03959e+13
1.03898e+13
1.03839e+13
1.03781e+13
1.03724e+13
1.03668e+13
1.03613e+13
1.0356e+13
1.03507e+13
1.03455e+13
1.03404e+13
1.03354e+13
1.03305e+13
1.03257e+13
1.0321e+13
1.03164e+13
1.03118e+13
1.03074e+13
1.0303e+13
1.02987e+13
1.02945e+13
1.02904e+13
1.02863e+13
1.02823e+13
1.02784e+13
1.02745e+13
1.02707e+13
1.0267e+13
1.02634e+13
1.02598e+13
1.02563e+13
1.02528e+13
1.02494e+13
1.0246e+13
1.02427e+13
1.02395e+13
1.02363e+13
1.02332e+13
1.02301e+13
1.02271e+13
1.02241e+13
1.02212e+13
1.02183e+13
1.02155e+13
1.02127e+13
1.021e+13
1.02073e+13
1.02046e+13
1.0202e+13
1.01994e+13
1.01969e+13
1.01944e+13
1.0192e+13
1.01895e+13
1.01872e+13
1.01848e+13
1.01825e+13
1.01803e+13
1.0178e+13
1.01759e+13
1.01737e+13
1.01716e+13
1.01695e+13
1.01674e+13
1.01654e+13
1.01634e+13
1.01615e+13
1.01595e+13
1.01576e+13
1.01556e+13
1.01535e+13
1.01513e+13
1.01492e+13
1.01471e+13
1.01452e+13
1.01435e+13
1.01421e+13
1.05084e+13
1.05051e+13
1.05012e+13
1.04966e+13
1.04914e+13
1.04857e+13
1.04798e+13
1.04736e+13
1.04673e+13
1.04609e+13
1.04544e+13
1.04479e+13
1.04414e+13
1.04349e+13
1.04285e+13
1.04221e+13
1.04158e+13
1.04096e+13
1.04035e+13
1.03974e+13
1.03915e+13
1.03856e+13
1.03799e+13
1.03742e+13
1.03686e+13
1.03632e+13
1.03578e+13
1.03526e+13
1.03474e+13
1.03423e+13
1.03373e+13
1.03324e+13
1.03276e+13
1.03229e+13
1.03182e+13
1.03137e+13
1.03092e+13
1.03048e+13
1.03005e+13
1.02963e+13
1.02921e+13
1.0288e+13
1.0284e+13
1.02801e+13
1.02762e+13
1.02724e+13
1.02687e+13
1.0265e+13
1.02614e+13
1.02578e+13
1.02543e+13
1.02509e+13
1.02475e+13
1.02442e+13
1.0241e+13
1.02378e+13
1.02346e+13
1.02315e+13
1.02285e+13
1.02255e+13
1.02225e+13
1.02196e+13
1.02168e+13
1.0214e+13
1.02112e+13
1.02085e+13
1.02058e+13
1.02032e+13
1.02006e+13
1.01981e+13
1.01956e+13
1.01931e+13
1.01907e+13
1.01883e+13
1.0186e+13
1.01836e+13
1.01814e+13
1.01791e+13
1.01769e+13
1.01748e+13
1.01726e+13
1.01705e+13
1.01685e+13
1.01664e+13
1.01644e+13
1.01625e+13
1.01606e+13
1.01587e+13
1.01567e+13
1.01548e+13
1.01528e+13
1.01507e+13
1.01487e+13
1.01467e+13
1.01449e+13
1.01433e+13
1.0142e+13
1.0494e+13
1.04914e+13
1.04882e+13
1.04843e+13
1.04798e+13
1.04749e+13
1.04696e+13
1.04641e+13
1.04583e+13
1.04524e+13
1.04464e+13
1.04404e+13
1.04343e+13
1.04281e+13
1.04221e+13
1.0416e+13
1.041e+13
1.0404e+13
1.03981e+13
1.03923e+13
1.03866e+13
1.03809e+13
1.03753e+13
1.03699e+13
1.03644e+13
1.03591e+13
1.03539e+13
1.03488e+13
1.03437e+13
1.03387e+13
1.03339e+13
1.03291e+13
1.03243e+13
1.03197e+13
1.03152e+13
1.03107e+13
1.03063e+13
1.0302e+13
1.02977e+13
1.02936e+13
1.02895e+13
1.02855e+13
1.02815e+13
1.02776e+13
1.02738e+13
1.02701e+13
1.02664e+13
1.02628e+13
1.02592e+13
1.02557e+13
1.02523e+13
1.02489e+13
1.02455e+13
1.02423e+13
1.02391e+13
1.02359e+13
1.02328e+13
1.02297e+13
1.02267e+13
1.02238e+13
1.02209e+13
1.0218e+13
1.02152e+13
1.02124e+13
1.02097e+13
1.0207e+13
1.02044e+13
1.02018e+13
1.01992e+13
1.01967e+13
1.01943e+13
1.01918e+13
1.01894e+13
1.01871e+13
1.01848e+13
1.01825e+13
1.01803e+13
1.0178e+13
1.01759e+13
1.01737e+13
1.01716e+13
1.01696e+13
1.01675e+13
1.01655e+13
1.01636e+13
1.01616e+13
1.01597e+13
1.01579e+13
1.0156e+13
1.01541e+13
1.01521e+13
1.01502e+13
1.01482e+13
1.01463e+13
1.01446e+13
1.01431e+13
1.01418e+13
1.04799e+13
1.04778e+13
1.04751e+13
1.04717e+13
1.04679e+13
1.04636e+13
1.04589e+13
1.04539e+13
1.04487e+13
1.04434e+13
1.04378e+13
1.04322e+13
1.04265e+13
1.04208e+13
1.04151e+13
1.04093e+13
1.04036e+13
1.03979e+13
1.03923e+13
1.03867e+13
1.03812e+13
1.03758e+13
1.03704e+13
1.03651e+13
1.03598e+13
1.03547e+13
1.03496e+13
1.03446e+13
1.03397e+13
1.03349e+13
1.03301e+13
1.03254e+13
1.03208e+13
1.03163e+13
1.03118e+13
1.03074e+13
1.03031e+13
1.02989e+13
1.02948e+13
1.02907e+13
1.02867e+13
1.02827e+13
1.02788e+13
1.0275e+13
1.02713e+13
1.02676e+13
1.0264e+13
1.02604e+13
1.02569e+13
1.02535e+13
1.02501e+13
1.02467e+13
1.02435e+13
1.02403e+13
1.02371e+13
1.0234e+13
1.02309e+13
1.02279e+13
1.0225e+13
1.0222e+13
1.02192e+13
1.02164e+13
1.02136e+13
1.02109e+13
1.02082e+13
1.02055e+13
1.0203e+13
1.02004e+13
1.01979e+13
1.01954e+13
1.0193e+13
1.01906e+13
1.01882e+13
1.01859e+13
1.01836e+13
1.01814e+13
1.01792e+13
1.0177e+13
1.01749e+13
1.01728e+13
1.01707e+13
1.01687e+13
1.01667e+13
1.01647e+13
1.01628e+13
1.01609e+13
1.0159e+13
1.01572e+13
1.01553e+13
1.01535e+13
1.01516e+13
1.01496e+13
1.01477e+13
1.01459e+13
1.01443e+13
1.01428e+13
1.01413e+13
1.04663e+13
1.04645e+13
1.04622e+13
1.04593e+13
1.04559e+13
1.04521e+13
1.0448e+13
1.04435e+13
1.04388e+13
1.04339e+13
1.04288e+13
1.04236e+13
1.04183e+13
1.0413e+13
1.04076e+13
1.04022e+13
1.03968e+13
1.03914e+13
1.03861e+13
1.03807e+13
1.03755e+13
1.03702e+13
1.03651e+13
1.036e+13
1.03549e+13
1.03499e+13
1.0345e+13
1.03402e+13
1.03354e+13
1.03307e+13
1.03261e+13
1.03215e+13
1.0317e+13
1.03126e+13
1.03083e+13
1.0304e+13
1.02998e+13
1.02957e+13
1.02916e+13
1.02876e+13
1.02837e+13
1.02798e+13
1.0276e+13
1.02723e+13
1.02686e+13
1.0265e+13
1.02615e+13
1.0258e+13
1.02545e+13
1.02511e+13
1.02478e+13
1.02446e+13
1.02414e+13
1.02382e+13
1.02351e+13
1.0232e+13
1.0229e+13
1.02261e+13
1.02232e+13
1.02203e+13
1.02175e+13
1.02147e+13
1.0212e+13
1.02093e+13
1.02067e+13
1.02041e+13
1.02016e+13
1.0199e+13
1.01966e+13
1.01941e+13
1.01918e+13
1.01894e+13
1.01871e+13
1.01848e+13
1.01826e+13
1.01804e+13
1.01782e+13
1.01761e+13
1.0174e+13
1.01719e+13
1.01699e+13
1.01679e+13
1.01659e+13
1.01639e+13
1.0162e+13
1.01602e+13
1.01583e+13
1.01565e+13
1.01547e+13
1.01529e+13
1.0151e+13
1.01491e+13
1.01473e+13
1.01456e+13
1.0144e+13
1.01425e+13
1.0141e+13
1.04542e+13
1.04532e+13
1.04518e+13
1.04498e+13
1.04472e+13
1.04442e+13
1.04408e+13
1.04371e+13
1.0433e+13
1.04288e+13
1.04243e+13
1.04196e+13
1.04148e+13
1.04099e+13
1.04049e+13
1.03999e+13
1.03948e+13
1.03897e+13
1.03846e+13
1.03795e+13
1.03745e+13
1.03694e+13
1.03644e+13
1.03595e+13
1.03546e+13
1.03497e+13
1.03449e+13
1.03402e+13
1.03355e+13
1.03309e+13
1.03264e+13
1.03219e+13
1.03175e+13
1.03131e+13
1.03088e+13
1.03046e+13
1.03004e+13
1.02963e+13
1.02923e+13
1.02884e+13
1.02845e+13
1.02806e+13
1.02769e+13
1.02731e+13
1.02695e+13
1.02659e+13
1.02624e+13
1.02589e+13
1.02555e+13
1.02521e+13
1.02488e+13
1.02456e+13
1.02424e+13
1.02392e+13
1.02361e+13
1.02331e+13
1.02301e+13
1.02271e+13
1.02243e+13
1.02214e+13
1.02186e+13
1.02158e+13
1.02131e+13
1.02105e+13
1.02078e+13
1.02052e+13
1.02027e+13
1.02002e+13
1.01977e+13
1.01953e+13
1.01929e+13
1.01906e+13
1.01883e+13
1.0186e+13
1.01838e+13
1.01816e+13
1.01794e+13
1.01773e+13
1.01752e+13
1.01731e+13
1.0171e+13
1.0169e+13
1.01671e+13
1.01651e+13
1.01632e+13
1.01613e+13
1.01595e+13
1.01577e+13
1.01559e+13
1.01541e+13
1.01523e+13
1.01505e+13
1.01487e+13
1.01469e+13
1.01452e+13
1.01436e+13
1.01422e+13
1.01407e+13
1.04414e+13
1.04407e+13
1.04395e+13
1.04377e+13
1.04355e+13
1.04329e+13
1.04298e+13
1.04264e+13
1.04228e+13
1.04189e+13
1.04147e+13
1.04104e+13
1.0406e+13
1.04014e+13
1.03968e+13
1.03921e+13
1.03873e+13
1.03825e+13
1.03777e+13
1.03729e+13
1.03681e+13
1.03633e+13
1.03585e+13
1.03538e+13
1.03491e+13
1.03444e+13
1.03398e+13
1.03353e+13
1.03307e+13
1.03263e+13
1.03219e+13
1.03176e+13
1.03133e+13
1.03091e+13
1.03049e+13
1.03008e+13
1.02968e+13
1.02928e+13
1.02889e+13
1.02851e+13
1.02813e+13
1.02775e+13
1.02739e+13
1.02702e+13
1.02667e+13
1.02632e+13
1.02597e+13
1.02563e+13
1.0253e+13
1.02497e+13
1.02465e+13
1.02433e+13
1.02402e+13
1.02371e+13
1.02341e+13
1.02311e+13
1.02282e+13
1.02253e+13
1.02225e+13
1.02197e+13
1.02169e+13
1.02142e+13
1.02116e+13
1.02089e+13
1.02064e+13
1.02038e+13
1.02013e+13
1.01989e+13
1.01965e+13
1.01941e+13
1.01917e+13
1.01894e+13
1.01872e+13
1.01849e+13
1.01827e+13
1.01806e+13
1.01784e+13
1.01763e+13
1.01743e+13
1.01722e+13
1.01702e+13
1.01682e+13
1.01663e+13
1.01644e+13
1.01625e+13
1.01606e+13
1.01588e+13
1.0157e+13
1.01552e+13
1.01535e+13
1.01517e+13
1.01499e+13
1.01481e+13
1.01464e+13
1.01447e+13
1.01432e+13
1.01418e+13
1.01405e+13
1.04292e+13
1.04287e+13
1.04277e+13
1.04262e+13
1.04242e+13
1.04219e+13
1.04191e+13
1.04161e+13
1.04128e+13
1.04092e+13
1.04054e+13
1.04014e+13
1.03973e+13
1.03931e+13
1.03887e+13
1.03843e+13
1.03798e+13
1.03753e+13
1.03708e+13
1.03662e+13
1.03616e+13
1.03571e+13
1.03525e+13
1.0348e+13
1.03435e+13
1.03391e+13
1.03347e+13
1.03303e+13
1.03259e+13
1.03217e+13
1.03174e+13
1.03132e+13
1.03091e+13
1.0305e+13
1.0301e+13
1.02971e+13
1.02931e+13
1.02893e+13
1.02855e+13
1.02818e+13
1.02781e+13
1.02744e+13
1.02709e+13
1.02673e+13
1.02639e+13
1.02605e+13
1.02571e+13
1.02538e+13
1.02505e+13
1.02473e+13
1.02442e+13
1.02411e+13
1.0238e+13
1.0235e+13
1.02321e+13
1.02292e+13
1.02263e+13
1.02235e+13
1.02207e+13
1.0218e+13
1.02153e+13
1.02126e+13
1.021e+13
1.02074e+13
1.02049e+13
1.02024e+13
1.02e+13
1.01976e+13
1.01952e+13
1.01928e+13
1.01905e+13
1.01883e+13
1.0186e+13
1.01838e+13
1.01817e+13
1.01796e+13
1.01775e+13
1.01754e+13
1.01733e+13
1.01713e+13
1.01694e+13
1.01674e+13
1.01655e+13
1.01636e+13
1.01618e+13
1.01599e+13
1.01581e+13
1.01563e+13
1.01546e+13
1.01528e+13
1.01511e+13
1.01493e+13
1.01476e+13
1.01459e+13
1.01443e+13
1.01428e+13
1.01414e+13
1.01401e+13
1.04176e+13
1.04173e+13
1.04163e+13
1.04151e+13
1.04133e+13
1.04112e+13
1.04088e+13
1.0406e+13
1.0403e+13
1.03997e+13
1.03963e+13
1.03926e+13
1.03888e+13
1.03848e+13
1.03808e+13
1.03766e+13
1.03724e+13
1.03682e+13
1.03639e+13
1.03596e+13
1.03553e+13
1.03509e+13
1.03466e+13
1.03423e+13
1.0338e+13
1.03338e+13
1.03295e+13
1.03253e+13
1.03212e+13
1.0317e+13
1.0313e+13
1.03089e+13
1.0305e+13
1.0301e+13
1.02971e+13
1.02933e+13
1.02895e+13
1.02858e+13
1.02821e+13
1.02785e+13
1.02749e+13
1.02714e+13
1.02679e+13
1.02645e+13
1.02611e+13
1.02578e+13
1.02545e+13
1.02513e+13
1.02481e+13
1.0245e+13
1.02419e+13
1.02389e+13
1.02359e+13
1.0233e+13
1.02301e+13
1.02272e+13
1.02244e+13
1.02216e+13
1.02189e+13
1.02162e+13
1.02136e+13
1.0211e+13
1.02085e+13
1.02059e+13
1.02035e+13
1.0201e+13
1.01986e+13
1.01962e+13
1.01939e+13
1.01916e+13
1.01893e+13
1.01871e+13
1.01849e+13
1.01828e+13
1.01806e+13
1.01785e+13
1.01765e+13
1.01744e+13
1.01724e+13
1.01704e+13
1.01685e+13
1.01666e+13
1.01647e+13
1.01628e+13
1.0161e+13
1.01592e+13
1.01574e+13
1.01556e+13
1.01539e+13
1.01522e+13
1.01505e+13
1.01487e+13
1.0147e+13
1.01453e+13
1.01437e+13
1.01423e+13
1.01409e+13
1.01396e+13
1.04064e+13
1.04064e+13
1.04054e+13
1.04044e+13
1.04028e+13
1.0401e+13
1.03988e+13
1.03963e+13
1.03936e+13
1.03906e+13
1.03874e+13
1.0384e+13
1.03805e+13
1.03768e+13
1.0373e+13
1.03691e+13
1.03652e+13
1.03612e+13
1.03572e+13
1.03531e+13
1.0349e+13
1.03449e+13
1.03408e+13
1.03367e+13
1.03326e+13
1.03285e+13
1.03244e+13
1.03204e+13
1.03164e+13
1.03125e+13
1.03086e+13
1.03047e+13
1.03008e+13
1.0297e+13
1.02933e+13
1.02896e+13
1.02859e+13
1.02823e+13
1.02787e+13
1.02752e+13
1.02717e+13
1.02683e+13
1.02649e+13
1.02616e+13
1.02583e+13
1.02551e+13
1.02519e+13
1.02488e+13
1.02457e+13
1.02426e+13
1.02396e+13
1.02367e+13
1.02338e+13
1.02309e+13
1.02281e+13
1.02253e+13
1.02225e+13
1.02198e+13
1.02172e+13
1.02145e+13
1.02119e+13
1.02094e+13
1.02069e+13
1.02044e+13
1.0202e+13
1.01996e+13
1.01972e+13
1.01949e+13
1.01926e+13
1.01903e+13
1.01881e+13
1.01859e+13
1.01838e+13
1.01816e+13
1.01795e+13
1.01775e+13
1.01754e+13
1.01734e+13
1.01715e+13
1.01695e+13
1.01676e+13
1.01657e+13
1.01638e+13
1.0162e+13
1.01602e+13
1.01584e+13
1.01566e+13
1.01549e+13
1.01532e+13
1.01515e+13
1.01498e+13
1.01481e+13
1.01464e+13
1.01448e+13
1.01432e+13
1.01417e+13
1.01403e+13
1.0139e+13
1.03958e+13
1.03958e+13
1.0395e+13
1.03941e+13
1.03928e+13
1.03911e+13
1.03891e+13
1.03869e+13
1.03844e+13
1.03816e+13
1.03787e+13
1.03756e+13
1.03723e+13
1.03689e+13
1.03654e+13
1.03618e+13
1.03581e+13
1.03543e+13
1.03505e+13
1.03467e+13
1.03428e+13
1.03389e+13
1.0335e+13
1.03311e+13
1.03272e+13
1.03233e+13
1.03194e+13
1.03156e+13
1.03117e+13
1.03079e+13
1.03042e+13
1.03004e+13
1.02967e+13
1.02931e+13
1.02894e+13
1.02859e+13
1.02823e+13
1.02788e+13
1.02754e+13
1.0272e+13
1.02686e+13
1.02653e+13
1.0262e+13
1.02588e+13
1.02556e+13
1.02524e+13
1.02493e+13
1.02463e+13
1.02432e+13
1.02403e+13
1.02373e+13
1.02345e+13
1.02316e+13
1.02288e+13
1.0226e+13
1.02233e+13
1.02206e+13
1.0218e+13
1.02154e+13
1.02128e+13
1.02103e+13
1.02078e+13
1.02053e+13
1.02029e+13
1.02005e+13
1.01981e+13
1.01958e+13
1.01935e+13
1.01913e+13
1.01891e+13
1.01869e+13
1.01847e+13
1.01826e+13
1.01805e+13
1.01784e+13
1.01764e+13
1.01744e+13
1.01724e+13
1.01705e+13
1.01685e+13
1.01666e+13
1.01648e+13
1.01629e+13
1.01611e+13
1.01593e+13
1.01576e+13
1.01558e+13
1.01541e+13
1.01524e+13
1.01507e+13
1.01491e+13
1.01474e+13
1.01458e+13
1.01442e+13
1.01426e+13
1.01411e+13
1.01396e+13
1.01384e+13
1.03856e+13
1.03856e+13
1.0385e+13
1.03842e+13
1.03831e+13
1.03816e+13
1.03798e+13
1.03778e+13
1.03755e+13
1.0373e+13
1.03703e+13
1.03674e+13
1.03644e+13
1.03612e+13
1.0358e+13
1.03546e+13
1.03511e+13
1.03476e+13
1.0344e+13
1.03404e+13
1.03367e+13
1.0333e+13
1.03293e+13
1.03256e+13
1.03219e+13
1.03182e+13
1.03145e+13
1.03108e+13
1.03071e+13
1.03034e+13
1.02998e+13
1.02962e+13
1.02927e+13
1.02891e+13
1.02856e+13
1.02822e+13
1.02788e+13
1.02754e+13
1.0272e+13
1.02687e+13
1.02655e+13
1.02622e+13
1.02591e+13
1.02559e+13
1.02528e+13
1.02497e+13
1.02467e+13
1.02437e+13
1.02408e+13
1.02379e+13
1.02351e+13
1.02322e+13
1.02295e+13
1.02267e+13
1.0224e+13
1.02213e+13
1.02187e+13
1.02161e+13
1.02136e+13
1.02111e+13
1.02086e+13
1.02061e+13
1.02037e+13
1.02013e+13
1.0199e+13
1.01967e+13
1.01944e+13
1.01922e+13
1.01899e+13
1.01878e+13
1.01856e+13
1.01835e+13
1.01814e+13
1.01793e+13
1.01773e+13
1.01753e+13
1.01733e+13
1.01714e+13
1.01695e+13
1.01676e+13
1.01657e+13
1.01639e+13
1.0162e+13
1.01602e+13
1.01585e+13
1.01567e+13
1.0155e+13
1.01533e+13
1.01517e+13
1.015e+13
1.01483e+13
1.01467e+13
1.01451e+13
1.01435e+13
1.0142e+13
1.01405e+13
1.0139e+13
1.01378e+13
1.03758e+13
1.03759e+13
1.03754e+13
1.03747e+13
1.03737e+13
1.03724e+13
1.03708e+13
1.0369e+13
1.03669e+13
1.03646e+13
1.03621e+13
1.03595e+13
1.03567e+13
1.03538e+13
1.03507e+13
1.03475e+13
1.03443e+13
1.0341e+13
1.03376e+13
1.03342e+13
1.03307e+13
1.03272e+13
1.03237e+13
1.03202e+13
1.03166e+13
1.03131e+13
1.03095e+13
1.0306e+13
1.03025e+13
1.0299e+13
1.02955e+13
1.02921e+13
1.02886e+13
1.02852e+13
1.02819e+13
1.02785e+13
1.02752e+13
1.02719e+13
1.02687e+13
1.02655e+13
1.02623e+13
1.02592e+13
1.02561e+13
1.02531e+13
1.02501e+13
1.02471e+13
1.02441e+13
1.02412e+13
1.02384e+13
1.02355e+13
1.02328e+13
1.023e+13
1.02273e+13
1.02246e+13
1.0222e+13
1.02194e+13
1.02168e+13
1.02143e+13
1.02118e+13
1.02093e+13
1.02069e+13
1.02045e+13
1.02021e+13
1.01998e+13
1.01975e+13
1.01952e+13
1.0193e+13
1.01908e+13
1.01886e+13
1.01864e+13
1.01843e+13
1.01822e+13
1.01802e+13
1.01781e+13
1.01761e+13
1.01742e+13
1.01722e+13
1.01703e+13
1.01684e+13
1.01666e+13
1.01647e+13
1.01629e+13
1.01611e+13
1.01594e+13
1.01576e+13
1.01559e+13
1.01542e+13
1.01525e+13
1.01509e+13
1.01492e+13
1.01476e+13
1.0146e+13
1.01444e+13
1.01429e+13
1.01413e+13
1.01398e+13
1.01384e+13
1.01372e+13
1.03665e+13
1.03666e+13
1.03662e+13
1.03656e+13
1.03648e+13
1.03636e+13
1.03622e+13
1.03605e+13
1.03586e+13
1.03565e+13
1.03542e+13
1.03518e+13
1.03492e+13
1.03465e+13
1.03436e+13
1.03407e+13
1.03376e+13
1.03345e+13
1.03313e+13
1.03281e+13
1.03248e+13
1.03215e+13
1.03182e+13
1.03148e+13
1.03114e+13
1.03081e+13
1.03047e+13
1.03013e+13
1.02979e+13
1.02946e+13
1.02913e+13
1.02879e+13
1.02846e+13
1.02814e+13
1.02781e+13
1.02749e+13
1.02717e+13
1.02685e+13
1.02654e+13
1.02623e+13
1.02592e+13
1.02562e+13
1.02532e+13
1.02502e+13
1.02473e+13
1.02444e+13
1.02416e+13
1.02387e+13
1.02359e+13
1.02332e+13
1.02305e+13
1.02278e+13
1.02251e+13
1.02225e+13
1.02199e+13
1.02174e+13
1.02149e+13
1.02124e+13
1.02099e+13
1.02075e+13
1.02052e+13
1.02028e+13
1.02005e+13
1.01982e+13
1.01959e+13
1.01937e+13
1.01915e+13
1.01893e+13
1.01872e+13
1.01851e+13
1.0183e+13
1.0181e+13
1.0179e+13
1.0177e+13
1.0175e+13
1.0173e+13
1.01711e+13
1.01692e+13
1.01674e+13
1.01655e+13
1.01637e+13
1.01619e+13
1.01602e+13
1.01584e+13
1.01567e+13
1.0155e+13
1.01534e+13
1.01517e+13
1.01501e+13
1.01484e+13
1.01468e+13
1.01453e+13
1.01437e+13
1.01422e+13
1.01407e+13
1.01392e+13
1.01377e+13
1.01365e+13
1.03575e+13
1.03577e+13
1.03574e+13
1.03569e+13
1.03561e+13
1.03551e+13
1.03538e+13
1.03523e+13
1.03506e+13
1.03487e+13
1.03466e+13
1.03443e+13
1.03419e+13
1.03394e+13
1.03367e+13
1.0334e+13
1.03311e+13
1.03282e+13
1.03252e+13
1.03221e+13
1.03191e+13
1.03159e+13
1.03127e+13
1.03096e+13
1.03063e+13
1.03031e+13
1.02999e+13
1.02967e+13
1.02935e+13
1.02902e+13
1.0287e+13
1.02838e+13
1.02807e+13
1.02775e+13
1.02744e+13
1.02713e+13
1.02682e+13
1.02651e+13
1.02621e+13
1.02591e+13
1.02561e+13
1.02532e+13
1.02503e+13
1.02474e+13
1.02446e+13
1.02418e+13
1.0239e+13
1.02362e+13
1.02335e+13
1.02308e+13
1.02282e+13
1.02256e+13
1.0223e+13
1.02204e+13
1.02179e+13
1.02154e+13
1.0213e+13
1.02105e+13
1.02081e+13
1.02058e+13
1.02034e+13
1.02011e+13
1.01989e+13
1.01966e+13
1.01944e+13
1.01922e+13
1.01901e+13
1.01879e+13
1.01858e+13
1.01838e+13
1.01817e+13
1.01797e+13
1.01777e+13
1.01758e+13
1.01738e+13
1.01719e+13
1.017e+13
1.01682e+13
1.01663e+13
1.01645e+13
1.01627e+13
1.0161e+13
1.01592e+13
1.01575e+13
1.01558e+13
1.01542e+13
1.01525e+13
1.01509e+13
1.01493e+13
1.01477e+13
1.01461e+13
1.01445e+13
1.0143e+13
1.01415e+13
1.014e+13
1.01385e+13
1.01371e+13
1.01357e+13
1.03489e+13
1.03491e+13
1.03489e+13
1.03485e+13
1.03478e+13
1.03469e+13
1.03458e+13
1.03444e+13
1.03428e+13
1.03411e+13
1.03391e+13
1.03371e+13
1.03348e+13
1.03325e+13
1.033e+13
1.03274e+13
1.03248e+13
1.0322e+13
1.03192e+13
1.03163e+13
1.03134e+13
1.03104e+13
1.03074e+13
1.03044e+13
1.03013e+13
1.02983e+13
1.02952e+13
1.02921e+13
1.0289e+13
1.02859e+13
1.02829e+13
1.02798e+13
1.02768e+13
1.02737e+13
1.02707e+13
1.02677e+13
1.02647e+13
1.02618e+13
1.02589e+13
1.02559e+13
1.02531e+13
1.02502e+13
1.02474e+13
1.02446e+13
1.02418e+13
1.02391e+13
1.02364e+13
1.02337e+13
1.02311e+13
1.02285e+13
1.02259e+13
1.02233e+13
1.02208e+13
1.02183e+13
1.02159e+13
1.02134e+13
1.0211e+13
1.02087e+13
1.02063e+13
1.0204e+13
1.02017e+13
1.01995e+13
1.01972e+13
1.0195e+13
1.01929e+13
1.01907e+13
1.01886e+13
1.01865e+13
1.01845e+13
1.01824e+13
1.01804e+13
1.01784e+13
1.01765e+13
1.01746e+13
1.01727e+13
1.01708e+13
1.01689e+13
1.01671e+13
1.01653e+13
1.01635e+13
1.01617e+13
1.016e+13
1.01583e+13
1.01566e+13
1.01549e+13
1.01533e+13
1.01517e+13
1.015e+13
1.01484e+13
1.01469e+13
1.01453e+13
1.01438e+13
1.01423e+13
1.01408e+13
1.01393e+13
1.01379e+13
1.01364e+13
1.0135e+13
1.03407e+13
1.03408e+13
1.03408e+13
1.03404e+13
1.03398e+13
1.0339e+13
1.0338e+13
1.03367e+13
1.03353e+13
1.03337e+13
1.0332e+13
1.033e+13
1.0328e+13
1.03258e+13
1.03235e+13
1.03211e+13
1.03186e+13
1.0316e+13
1.03133e+13
1.03106e+13
1.03079e+13
1.03051e+13
1.03022e+13
1.02993e+13
1.02964e+13
1.02935e+13
1.02906e+13
1.02876e+13
1.02847e+13
1.02817e+13
1.02788e+13
1.02758e+13
1.02729e+13
1.027e+13
1.02671e+13
1.02642e+13
1.02613e+13
1.02584e+13
1.02556e+13
1.02528e+13
1.025e+13
1.02473e+13
1.02445e+13
1.02418e+13
1.02391e+13
1.02365e+13
1.02338e+13
1.02312e+13
1.02287e+13
1.02261e+13
1.02236e+13
1.02211e+13
1.02187e+13
1.02162e+13
1.02138e+13
1.02115e+13
1.02091e+13
1.02068e+13
1.02045e+13
1.02022e+13
1.02e+13
1.01978e+13
1.01956e+13
1.01935e+13
1.01913e+13
1.01892e+13
1.01872e+13
1.01851e+13
1.01831e+13
1.01811e+13
1.01791e+13
1.01772e+13
1.01752e+13
1.01733e+13
1.01715e+13
1.01696e+13
1.01678e+13
1.0166e+13
1.01642e+13
1.01625e+13
1.01607e+13
1.0159e+13
1.01573e+13
1.01557e+13
1.0154e+13
1.01524e+13
1.01508e+13
1.01492e+13
1.01476e+13
1.01461e+13
1.01445e+13
1.0143e+13
1.01415e+13
1.01401e+13
1.01386e+13
1.01372e+13
1.01358e+13
1.01344e+13
1.03323e+13
1.03328e+13
1.0333e+13
1.0333e+13
1.03326e+13
1.03321e+13
1.03314e+13
1.03305e+13
1.03294e+13
1.03281e+13
1.03266e+13
1.0325e+13
1.03232e+13
1.03213e+13
1.03193e+13
1.03171e+13
1.03149e+13
1.03125e+13
1.03101e+13
1.03076e+13
1.03051e+13
1.03024e+13
1.02998e+13
1.02971e+13
1.02943e+13
1.02916e+13
1.02888e+13
1.0286e+13