/*--------------------------------*- C++ -*----------------------------------*\
  =========                 |
  \\      /  F ield         | OpenFOAM: The Open Source CFD Toolbox
   \\    /   O peration     | Website:  https://openfoam.org
    \\  /    A nd           | Version:  7
     \\/     M anipulation  |
\*---------------------------------------------------------------------------*/
FoamFile
{
    version     2.0;
    format      ascii;
    class       volScalarField;
    location    "1.3e-12";
    object      ni;
}
// * * * * * * * * * * * * * * * * * * * * * * * * * * * * * * * * * * * * * //

dimensions      [0 -3 0 0 0 0 0];

internalField   nonuniform List<scalar> 
14934
(
1.14534e+13
1.12885e+13
1.1167e+13
1.10726e+13
1.09964e+13
1.09332e+13
1.08796e+13
1.08333e+13
1.07928e+13
1.07569e+13
1.07249e+13
1.06959e+13
1.06697e+13
1.06456e+13
1.06235e+13
1.06031e+13
1.05842e+13
1.05666e+13
1.05501e+13
1.05346e+13
1.052e+13
1.05063e+13
1.04933e+13
1.0481e+13
1.04693e+13
1.04582e+13
1.04476e+13
1.04375e+13
1.04278e+13
1.04186e+13
1.04097e+13
1.04011e+13
1.03929e+13
1.0385e+13
1.03774e+13
1.03701e+13
1.0363e+13
1.03561e+13
1.03495e+13
1.03431e+13
1.03369e+13
1.03309e+13
1.03251e+13
1.03194e+13
1.03139e+13
1.03086e+13
1.03034e+13
1.02983e+13
1.02934e+13
1.02886e+13
1.0284e+13
1.02794e+13
1.0275e+13
1.02707e+13
1.02665e+13
1.02624e+13
1.02584e+13
1.02545e+13
1.02506e+13
1.02469e+13
1.02432e+13
1.02397e+13
1.02362e+13
1.02328e+13
1.02294e+13
1.02261e+13
1.02229e+13
1.02198e+13
1.02167e+13
1.02137e+13
1.02108e+13
1.02079e+13
1.0205e+13
1.02022e+13
1.01995e+13
1.01968e+13
1.01942e+13
1.01917e+13
1.01891e+13
1.01866e+13
1.01842e+13
1.01818e+13
1.01795e+13
1.01772e+13
1.01749e+13
1.01727e+13
1.01705e+13
1.01684e+13
1.01663e+13
1.01642e+13
1.01622e+13
1.01602e+13
1.01582e+13
1.01562e+13
1.01543e+13
1.01525e+13
1.01506e+13
1.1356e+13
1.12231e+13
1.11188e+13
1.10348e+13
1.09654e+13
1.0907e+13
1.0857e+13
1.08135e+13
1.07751e+13
1.0741e+13
1.07104e+13
1.06827e+13
1.06574e+13
1.06343e+13
1.0613e+13
1.05933e+13
1.0575e+13
1.05579e+13
1.05419e+13
1.05269e+13
1.05128e+13
1.04994e+13
1.04868e+13
1.04748e+13
1.04634e+13
1.04525e+13
1.04422e+13
1.04323e+13
1.04229e+13
1.04138e+13
1.04051e+13
1.03967e+13
1.03887e+13
1.0381e+13
1.03735e+13
1.03663e+13
1.03594e+13
1.03527e+13
1.03462e+13
1.03399e+13
1.03338e+13
1.03279e+13
1.03222e+13
1.03166e+13
1.03112e+13
1.03059e+13
1.03008e+13
1.02959e+13
1.0291e+13
1.02863e+13
1.02818e+13
1.02773e+13
1.02729e+13
1.02687e+13
1.02645e+13
1.02605e+13
1.02565e+13
1.02527e+13
1.02489e+13
1.02452e+13
1.02416e+13
1.02381e+13
1.02346e+13
1.02313e+13
1.0228e+13
1.02247e+13
1.02216e+13
1.02185e+13
1.02154e+13
1.02125e+13
1.02095e+13
1.02067e+13
1.02039e+13
1.02011e+13
1.01984e+13
1.01958e+13
1.01932e+13
1.01907e+13
1.01882e+13
1.01857e+13
1.01833e+13
1.01809e+13
1.01786e+13
1.01763e+13
1.01741e+13
1.01719e+13
1.01697e+13
1.01676e+13
1.01655e+13
1.01635e+13
1.01615e+13
1.01595e+13
1.01575e+13
1.01556e+13
1.01537e+13
1.01519e+13
1.015e+13
1.12428e+13
1.11439e+13
1.10602e+13
1.09892e+13
1.09287e+13
1.08765e+13
1.0831e+13
1.07909e+13
1.07553e+13
1.07233e+13
1.06945e+13
1.06682e+13
1.06442e+13
1.06222e+13
1.06018e+13
1.05829e+13
1.05653e+13
1.05488e+13
1.05334e+13
1.05188e+13
1.05051e+13
1.04922e+13
1.04799e+13
1.04683e+13
1.04572e+13
1.04467e+13
1.04366e+13
1.0427e+13
1.04177e+13
1.04089e+13
1.04004e+13
1.03922e+13
1.03844e+13
1.03768e+13
1.03695e+13
1.03625e+13
1.03557e+13
1.03491e+13
1.03427e+13
1.03366e+13
1.03306e+13
1.03248e+13
1.03192e+13
1.03137e+13
1.03084e+13
1.03033e+13
1.02983e+13
1.02934e+13
1.02886e+13
1.0284e+13
1.02795e+13
1.02751e+13
1.02708e+13
1.02666e+13
1.02626e+13
1.02586e+13
1.02547e+13
1.02509e+13
1.02472e+13
1.02435e+13
1.024e+13
1.02365e+13
1.02331e+13
1.02298e+13
1.02265e+13
1.02233e+13
1.02202e+13
1.02171e+13
1.02141e+13
1.02112e+13
1.02083e+13
1.02055e+13
1.02027e+13
1.02e+13
1.01974e+13
1.01947e+13
1.01922e+13
1.01897e+13
1.01872e+13
1.01848e+13
1.01824e+13
1.01801e+13
1.01778e+13
1.01755e+13
1.01733e+13
1.01711e+13
1.0169e+13
1.01669e+13
1.01648e+13
1.01628e+13
1.01608e+13
1.01588e+13
1.01569e+13
1.0155e+13
1.01531e+13
1.01513e+13
1.01494e+13
1.11337e+13
1.10624e+13
1.09976e+13
1.09398e+13
1.08885e+13
1.08431e+13
1.08026e+13
1.07664e+13
1.07338e+13
1.07043e+13
1.06774e+13
1.06528e+13
1.06302e+13
1.06093e+13
1.05899e+13
1.05719e+13
1.0555e+13
1.05393e+13
1.05244e+13
1.05104e+13
1.04972e+13
1.04847e+13
1.04729e+13
1.04616e+13
1.04509e+13
1.04406e+13
1.04308e+13
1.04215e+13
1.04125e+13
1.04039e+13
1.03956e+13
1.03877e+13
1.038e+13
1.03726e+13
1.03655e+13
1.03586e+13
1.03519e+13
1.03455e+13
1.03393e+13
1.03332e+13
1.03274e+13
1.03217e+13
1.03162e+13
1.03108e+13
1.03056e+13
1.03006e+13
1.02957e+13
1.02909e+13
1.02862e+13
1.02817e+13
1.02772e+13
1.02729e+13
1.02687e+13
1.02646e+13
1.02606e+13
1.02566e+13
1.02528e+13
1.02491e+13
1.02454e+13
1.02418e+13
1.02383e+13
1.02349e+13
1.02315e+13
1.02283e+13
1.0225e+13
1.02219e+13
1.02188e+13
1.02158e+13
1.02128e+13
1.02099e+13
1.02071e+13
1.02043e+13
1.02016e+13
1.01989e+13
1.01963e+13
1.01937e+13
1.01911e+13
1.01887e+13
1.01862e+13
1.01838e+13
1.01815e+13
1.01792e+13
1.01769e+13
1.01747e+13
1.01725e+13
1.01703e+13
1.01682e+13
1.01661e+13
1.01641e+13
1.01621e+13
1.01601e+13
1.01581e+13
1.01562e+13
1.01543e+13
1.01525e+13
1.01507e+13
1.01489e+13
1.10358e+13
1.09849e+13
1.09356e+13
1.08894e+13
1.08469e+13
1.08081e+13
1.07727e+13
1.07405e+13
1.07111e+13
1.06842e+13
1.06594e+13
1.06366e+13
1.06154e+13
1.05958e+13
1.05775e+13
1.05604e+13
1.05444e+13
1.05294e+13
1.05152e+13
1.05018e+13
1.04891e+13
1.04771e+13
1.04656e+13
1.04547e+13
1.04444e+13
1.04344e+13
1.0425e+13
1.04159e+13
1.04072e+13
1.03988e+13
1.03907e+13
1.0383e+13
1.03755e+13
1.03683e+13
1.03614e+13
1.03546e+13
1.03481e+13
1.03418e+13
1.03357e+13
1.03298e+13
1.03241e+13
1.03186e+13
1.03132e+13
1.03079e+13
1.03028e+13
1.02978e+13
1.0293e+13
1.02883e+13
1.02837e+13
1.02793e+13
1.02749e+13
1.02707e+13
1.02665e+13
1.02625e+13
1.02585e+13
1.02547e+13
1.02509e+13
1.02472e+13
1.02436e+13
1.02401e+13
1.02366e+13
1.02333e+13
1.023e+13
1.02267e+13
1.02236e+13
1.02205e+13
1.02174e+13
1.02144e+13
1.02115e+13
1.02087e+13
1.02059e+13
1.02031e+13
1.02004e+13
1.01978e+13
1.01952e+13
1.01926e+13
1.01901e+13
1.01876e+13
1.01852e+13
1.01829e+13
1.01805e+13
1.01783e+13
1.0176e+13
1.01738e+13
1.01716e+13
1.01695e+13
1.01674e+13
1.01653e+13
1.01633e+13
1.01613e+13
1.01594e+13
1.01575e+13
1.01556e+13
1.01537e+13
1.01519e+13
1.015e+13
1.01483e+13
1.09505e+13
1.09141e+13
1.08769e+13
1.08404e+13
1.08055e+13
1.07728e+13
1.07423e+13
1.0714e+13
1.06878e+13
1.06634e+13
1.06408e+13
1.06198e+13
1.06002e+13
1.05819e+13
1.05647e+13
1.05486e+13
1.05335e+13
1.05192e+13
1.05057e+13
1.04929e+13
1.04807e+13
1.04692e+13
1.04582e+13
1.04477e+13
1.04377e+13
1.04281e+13
1.04189e+13
1.04101e+13
1.04017e+13
1.03936e+13
1.03858e+13
1.03782e+13
1.0371e+13
1.03639e+13
1.03572e+13
1.03506e+13
1.03443e+13
1.03381e+13
1.03322e+13
1.03264e+13
1.03208e+13
1.03154e+13
1.03101e+13
1.03049e+13
1.02999e+13
1.02951e+13
1.02903e+13
1.02857e+13
1.02812e+13
1.02769e+13
1.02726e+13
1.02684e+13
1.02643e+13
1.02604e+13
1.02565e+13
1.02527e+13
1.0249e+13
1.02454e+13
1.02418e+13
1.02383e+13
1.02349e+13
1.02316e+13
1.02284e+13
1.02252e+13
1.02221e+13
1.0219e+13
1.0216e+13
1.02131e+13
1.02102e+13
1.02074e+13
1.02046e+13
1.02019e+13
1.01992e+13
1.01966e+13
1.0194e+13
1.01915e+13
1.01891e+13
1.01866e+13
1.01842e+13
1.01819e+13
1.01796e+13
1.01773e+13
1.01751e+13
1.01729e+13
1.01708e+13
1.01687e+13
1.01666e+13
1.01646e+13
1.01626e+13
1.01606e+13
1.01587e+13
1.01568e+13
1.01549e+13
1.0153e+13
1.01512e+13
1.01494e+13
1.01477e+13
1.0877e+13
1.08508e+13
1.08226e+13
1.07938e+13
1.07655e+13
1.07382e+13
1.07121e+13
1.06874e+13
1.06642e+13
1.06424e+13
1.06219e+13
1.06027e+13
1.05846e+13
1.05676e+13
1.05516e+13
1.05365e+13
1.05223e+13
1.05087e+13
1.04959e+13
1.04838e+13
1.04722e+13
1.04611e+13
1.04506e+13
1.04405e+13
1.04309e+13
1.04217e+13
1.04128e+13
1.04043e+13
1.03962e+13
1.03883e+13
1.03807e+13
1.03734e+13
1.03663e+13
1.03595e+13
1.03529e+13
1.03465e+13
1.03404e+13
1.03344e+13
1.03286e+13
1.03229e+13
1.03175e+13
1.03121e+13
1.0307e+13
1.03019e+13
1.02971e+13
1.02923e+13
1.02877e+13
1.02831e+13
1.02787e+13
1.02744e+13
1.02702e+13
1.02661e+13
1.02621e+13
1.02582e+13
1.02544e+13
1.02507e+13
1.02471e+13
1.02435e+13
1.024e+13
1.02366e+13
1.02332e+13
1.023e+13
1.02268e+13
1.02236e+13
1.02206e+13
1.02175e+13
1.02146e+13
1.02117e+13
1.02089e+13
1.02061e+13
1.02033e+13
1.02007e+13
1.0198e+13
1.01955e+13
1.01929e+13
1.01904e+13
1.0188e+13
1.01856e+13
1.01832e+13
1.01809e+13
1.01787e+13
1.01764e+13
1.01742e+13
1.01721e+13
1.017e+13
1.01679e+13
1.01658e+13
1.01638e+13
1.01618e+13
1.01599e+13
1.0158e+13
1.01561e+13
1.01542e+13
1.01524e+13
1.01506e+13
1.01488e+13
1.01471e+13
1.08137e+13
1.07946e+13
1.07731e+13
1.07505e+13
1.07275e+13
1.07047e+13
1.06825e+13
1.06612e+13
1.06408e+13
1.06214e+13
1.06029e+13
1.05855e+13
1.05689e+13
1.05532e+13
1.05384e+13
1.05243e+13
1.05109e+13
1.04982e+13
1.04861e+13
1.04745e+13
1.04635e+13
1.0453e+13
1.04429e+13
1.04333e+13
1.0424e+13
1.04152e+13
1.04066e+13
1.03984e+13
1.03905e+13
1.03829e+13
1.03756e+13
1.03685e+13
1.03617e+13
1.0355e+13
1.03486e+13
1.03424e+13
1.03364e+13
1.03306e+13
1.03249e+13
1.03194e+13
1.03141e+13
1.03089e+13
1.03038e+13
1.02989e+13
1.02941e+13
1.02895e+13
1.02849e+13
1.02805e+13
1.02762e+13
1.0272e+13
1.02679e+13
1.02639e+13
1.02599e+13
1.02561e+13
1.02524e+13
1.02487e+13
1.02451e+13
1.02416e+13
1.02382e+13
1.02348e+13
1.02315e+13
1.02283e+13
1.02252e+13
1.02221e+13
1.0219e+13
1.02161e+13
1.02132e+13
1.02103e+13
1.02075e+13
1.02048e+13
1.02021e+13
1.01994e+13
1.01968e+13
1.01943e+13
1.01918e+13
1.01893e+13
1.01869e+13
1.01846e+13
1.01822e+13
1.018e+13
1.01777e+13
1.01755e+13
1.01733e+13
1.01712e+13
1.01691e+13
1.0167e+13
1.0165e+13
1.0163e+13
1.01611e+13
1.01591e+13
1.01572e+13
1.01554e+13
1.01535e+13
1.01517e+13
1.01499e+13
1.01482e+13
1.01465e+13
1.07589e+13
1.07448e+13
1.07284e+13
1.07105e+13
1.06918e+13
1.06729e+13
1.06541e+13
1.06357e+13
1.06178e+13
1.06006e+13
1.05841e+13
1.05683e+13
1.05532e+13
1.05388e+13
1.05251e+13
1.0512e+13
1.04995e+13
1.04875e+13
1.04761e+13
1.04652e+13
1.04547e+13
1.04447e+13
1.04351e+13
1.04259e+13
1.04171e+13
1.04086e+13
1.04004e+13
1.03925e+13
1.03849e+13
1.03775e+13
1.03704e+13
1.03636e+13
1.03569e+13
1.03505e+13
1.03443e+13
1.03383e+13
1.03324e+13
1.03268e+13
1.03212e+13
1.03159e+13
1.03107e+13
1.03056e+13
1.03007e+13
1.02959e+13
1.02912e+13
1.02867e+13
1.02822e+13
1.02779e+13
1.02736e+13
1.02695e+13
1.02655e+13
1.02616e+13
1.02577e+13
1.02539e+13
1.02503e+13
1.02467e+13
1.02432e+13
1.02397e+13
1.02363e+13
1.0233e+13
1.02298e+13
1.02266e+13
1.02235e+13
1.02205e+13
1.02175e+13
1.02146e+13
1.02117e+13
1.02089e+13
1.02062e+13
1.02035e+13
1.02008e+13
1.01982e+13
1.01956e+13
1.01931e+13
1.01907e+13
1.01882e+13
1.01859e+13
1.01835e+13
1.01812e+13
1.0179e+13
1.01768e+13
1.01746e+13
1.01724e+13
1.01703e+13
1.01682e+13
1.01662e+13
1.01642e+13
1.01622e+13
1.01603e+13
1.01584e+13
1.01565e+13
1.01547e+13
1.01528e+13
1.0151e+13
1.01493e+13
1.01476e+13
1.01458e+13
1.07112e+13
1.07007e+13
1.0688e+13
1.06738e+13
1.06586e+13
1.06429e+13
1.0627e+13
1.06111e+13
1.05955e+13
1.05803e+13
1.05656e+13
1.05514e+13
1.05376e+13
1.05245e+13
1.05118e+13
1.04997e+13
1.0488e+13
1.04768e+13
1.04661e+13
1.04558e+13
1.04459e+13
1.04365e+13
1.04273e+13
1.04185e+13
1.04101e+13
1.04019e+13
1.03941e+13
1.03865e+13
1.03792e+13
1.03721e+13
1.03652e+13
1.03586e+13
1.03522e+13
1.0346e+13
1.034e+13
1.03341e+13
1.03284e+13
1.03229e+13
1.03175e+13
1.03123e+13
1.03073e+13
1.03023e+13
1.02975e+13
1.02928e+13
1.02883e+13
1.02838e+13
1.02795e+13
1.02752e+13
1.02711e+13
1.0267e+13
1.02631e+13
1.02592e+13
1.02555e+13
1.02518e+13
1.02482e+13
1.02446e+13
1.02412e+13
1.02378e+13
1.02345e+13
1.02313e+13
1.02281e+13
1.0225e+13
1.02219e+13
1.02189e+13
1.0216e+13
1.02131e+13
1.02103e+13
1.02075e+13
1.02048e+13
1.02021e+13
1.01995e+13
1.0197e+13
1.01944e+13
1.0192e+13
1.01895e+13
1.01871e+13
1.01848e+13
1.01825e+13
1.01802e+13
1.0178e+13
1.01758e+13
1.01736e+13
1.01715e+13
1.01694e+13
1.01674e+13
1.01654e+13
1.01634e+13
1.01614e+13
1.01595e+13
1.01576e+13
1.01558e+13
1.0154e+13
1.01522e+13
1.01504e+13
1.01486e+13
1.01469e+13
1.01452e+13
1.06694e+13
1.06615e+13
1.06516e+13
1.06403e+13
1.06278e+13
1.06147e+13
1.06013e+13
1.05876e+13
1.05741e+13
1.05607e+13
1.05475e+13
1.05347e+13
1.05223e+13
1.05103e+13
1.04986e+13
1.04874e+13
1.04766e+13
1.04662e+13
1.04561e+13
1.04465e+13
1.04371e+13
1.04282e+13
1.04195e+13
1.04111e+13
1.04031e+13
1.03953e+13
1.03878e+13
1.03805e+13
1.03734e+13
1.03666e+13
1.036e+13
1.03536e+13
1.03474e+13
1.03414e+13
1.03356e+13
1.03299e+13
1.03244e+13
1.0319e+13
1.03138e+13
1.03088e+13
1.03038e+13
1.0299e+13
1.02943e+13
1.02897e+13
1.02853e+13
1.02809e+13
1.02767e+13
1.02726e+13
1.02685e+13
1.02646e+13
1.02607e+13
1.02569e+13
1.02532e+13
1.02496e+13
1.02461e+13
1.02426e+13
1.02392e+13
1.02359e+13
1.02326e+13
1.02295e+13
1.02263e+13
1.02233e+13
1.02203e+13
1.02173e+13
1.02145e+13
1.02116e+13
1.02088e+13
1.02061e+13
1.02034e+13
1.02008e+13
1.01982e+13
1.01957e+13
1.01932e+13
1.01908e+13
1.01884e+13
1.0186e+13
1.01837e+13
1.01814e+13
1.01792e+13
1.0177e+13
1.01748e+13
1.01727e+13
1.01706e+13
1.01686e+13
1.01665e+13
1.01645e+13
1.01626e+13
1.01606e+13
1.01588e+13
1.01569e+13
1.0155e+13
1.01532e+13
1.01515e+13
1.01497e+13
1.0148e+13
1.01463e+13
1.01446e+13
1.06325e+13
1.06265e+13
1.06188e+13
1.06096e+13
1.05994e+13
1.05885e+13
1.0577e+13
1.05653e+13
1.05535e+13
1.05417e+13
1.053e+13
1.05185e+13
1.05073e+13
1.04963e+13
1.04857e+13
1.04753e+13
1.04653e+13
1.04556e+13
1.04462e+13
1.04371e+13
1.04284e+13
1.04199e+13
1.04117e+13
1.04037e+13
1.0396e+13
1.03886e+13
1.03814e+13
1.03744e+13
1.03677e+13
1.03611e+13
1.03548e+13
1.03486e+13
1.03427e+13
1.03368e+13
1.03312e+13
1.03257e+13
1.03204e+13
1.03152e+13
1.03101e+13
1.03052e+13
1.03004e+13
1.02957e+13
1.02911e+13
1.02867e+13
1.02823e+13
1.02781e+13
1.02739e+13
1.02699e+13
1.02659e+13
1.02621e+13
1.02583e+13
1.02546e+13
1.0251e+13
1.02474e+13
1.0244e+13
1.02406e+13
1.02372e+13
1.0234e+13
1.02308e+13
1.02277e+13
1.02246e+13
1.02216e+13
1.02186e+13
1.02157e+13
1.02129e+13
1.02101e+13
1.02074e+13
1.02047e+13
1.02021e+13
1.01995e+13
1.0197e+13
1.01945e+13
1.0192e+13
1.01896e+13
1.01872e+13
1.01849e+13
1.01826e+13
1.01804e+13
1.01782e+13
1.0176e+13
1.01739e+13
1.01718e+13
1.01697e+13
1.01677e+13
1.01657e+13
1.01637e+13
1.01618e+13
1.01599e+13
1.0158e+13
1.01561e+13
1.01543e+13
1.01525e+13
1.01508e+13
1.0149e+13
1.01473e+13
1.01456e+13
1.0144e+13
1.05997e+13
1.05951e+13
1.0589e+13
1.05816e+13
1.05732e+13
1.0564e+13
1.05543e+13
1.05442e+13
1.05339e+13
1.05235e+13
1.05131e+13
1.05028e+13
1.04927e+13
1.04827e+13
1.0473e+13
1.04634e+13
1.04542e+13
1.04452e+13
1.04364e+13
1.04279e+13
1.04196e+13
1.04116e+13
1.04039e+13
1.03963e+13
1.0389e+13
1.0382e+13
1.03751e+13
1.03684e+13
1.0362e+13
1.03557e+13
1.03496e+13
1.03436e+13
1.03379e+13
1.03323e+13
1.03268e+13
1.03215e+13
1.03163e+13
1.03113e+13
1.03064e+13
1.03016e+13
1.02969e+13
1.02924e+13
1.02879e+13
1.02836e+13
1.02793e+13
1.02752e+13
1.02712e+13
1.02672e+13
1.02633e+13
1.02596e+13
1.02559e+13
1.02522e+13
1.02487e+13
1.02452e+13
1.02418e+13
1.02385e+13
1.02353e+13
1.02321e+13
1.02289e+13
1.02259e+13
1.02228e+13
1.02199e+13
1.0217e+13
1.02142e+13
1.02114e+13
1.02086e+13
1.02059e+13
1.02033e+13
1.02007e+13
1.01982e+13
1.01957e+13
1.01932e+13
1.01908e+13
1.01884e+13
1.01861e+13
1.01838e+13
1.01815e+13
1.01793e+13
1.01771e+13
1.0175e+13
1.01729e+13
1.01708e+13
1.01688e+13
1.01668e+13
1.01648e+13
1.01628e+13
1.01609e+13
1.0159e+13
1.01572e+13
1.01554e+13
1.01536e+13
1.01518e+13
1.01501e+13
1.01483e+13
1.01467e+13
1.0145e+13
1.01433e+13
1.05723e+13
1.05704e+13
1.05669e+13
1.0562e+13
1.0556e+13
1.0549e+13
1.05413e+13
1.0533e+13
1.05243e+13
1.05153e+13
1.05061e+13
1.04969e+13
1.04877e+13
1.04785e+13
1.04695e+13
1.04605e+13
1.04518e+13
1.04432e+13
1.04349e+13
1.04267e+13
1.04188e+13
1.0411e+13
1.04035e+13
1.03961e+13
1.0389e+13
1.03821e+13
1.03754e+13
1.03688e+13
1.03624e+13
1.03562e+13
1.03502e+13
1.03443e+13
1.03386e+13
1.03331e+13
1.03277e+13
1.03224e+13
1.03173e+13
1.03123e+13
1.03074e+13
1.03026e+13
1.0298e+13
1.02935e+13
1.0289e+13
1.02847e+13
1.02805e+13
1.02764e+13
1.02723e+13
1.02684e+13
1.02645e+13
1.02608e+13
1.02571e+13
1.02534e+13
1.02499e+13
1.02464e+13
1.0243e+13
1.02397e+13
1.02365e+13
1.02333e+13
1.02301e+13
1.02271e+13
1.0224e+13
1.02211e+13
1.02182e+13
1.02153e+13
1.02126e+13
1.02098e+13
1.02071e+13
1.02045e+13
1.02019e+13
1.01993e+13
1.01968e+13
1.01944e+13
1.01919e+13
1.01896e+13
1.01872e+13
1.01849e+13
1.01827e+13
1.01804e+13
1.01783e+13
1.01761e+13
1.0174e+13
1.01719e+13
1.01699e+13
1.01679e+13
1.01659e+13
1.01639e+13
1.0162e+13
1.01601e+13
1.01582e+13
1.01564e+13
1.01546e+13
1.01528e+13
1.01511e+13
1.01494e+13
1.01477e+13
1.0146e+13
1.01443e+13
1.01427e+13
1.05454e+13
1.0544e+13
1.05413e+13
1.05374e+13
1.05324e+13
1.05266e+13
1.05201e+13
1.0513e+13
1.05055e+13
1.04976e+13
1.04895e+13
1.04813e+13
1.04731e+13
1.04648e+13
1.04566e+13
1.04485e+13
1.04404e+13
1.04325e+13
1.04248e+13
1.04172e+13
1.04098e+13
1.04025e+13
1.03954e+13
1.03885e+13
1.03818e+13
1.03752e+13
1.03688e+13
1.03625e+13
1.03565e+13
1.03505e+13
1.03448e+13
1.03391e+13
1.03337e+13
1.03283e+13
1.03231e+13
1.0318e+13
1.03131e+13
1.03082e+13
1.03035e+13
1.02989e+13
1.02944e+13
1.029e+13
1.02857e+13
1.02815e+13
1.02774e+13
1.02734e+13
1.02694e+13
1.02656e+13
1.02618e+13
1.02582e+13
1.02546e+13
1.0251e+13
1.02476e+13
1.02442e+13
1.02409e+13
1.02376e+13
1.02344e+13
1.02313e+13
1.02282e+13
1.02252e+13
1.02222e+13
1.02193e+13
1.02165e+13
1.02137e+13
1.0211e+13
1.02083e+13
1.02056e+13
1.0203e+13
1.02005e+13
1.0198e+13
1.01955e+13
1.01931e+13
1.01907e+13
1.01883e+13
1.0186e+13
1.01838e+13
1.01815e+13
1.01793e+13
1.01772e+13
1.01751e+13
1.0173e+13
1.01709e+13
1.01689e+13
1.01669e+13
1.0165e+13
1.0163e+13
1.01611e+13
1.01593e+13
1.01574e+13
1.01556e+13
1.01538e+13
1.01521e+13
1.01504e+13
1.01486e+13
1.0147e+13
1.01453e+13
1.01437e+13
1.01421e+13
1.0521e+13
1.05201e+13
1.0518e+13
1.05149e+13
1.05108e+13
1.05059e+13
1.05004e+13
1.04943e+13
1.04878e+13
1.04809e+13
1.04738e+13
1.04665e+13
1.04591e+13
1.04516e+13
1.04442e+13
1.04367e+13
1.04294e+13
1.04221e+13
1.04149e+13
1.04078e+13
1.04009e+13
1.03941e+13
1.03875e+13
1.03809e+13
1.03746e+13
1.03684e+13
1.03623e+13
1.03563e+13
1.03505e+13
1.03449e+13
1.03394e+13
1.0334e+13
1.03287e+13
1.03236e+13
1.03186e+13
1.03137e+13
1.03089e+13
1.03042e+13
1.02996e+13
1.02952e+13
1.02908e+13
1.02865e+13
1.02824e+13
1.02783e+13
1.02743e+13
1.02704e+13
1.02666e+13
1.02628e+13
1.02592e+13
1.02556e+13
1.0252e+13
1.02486e+13
1.02452e+13
1.02419e+13
1.02387e+13
1.02355e+13
1.02324e+13
1.02293e+13
1.02263e+13
1.02233e+13
1.02204e+13
1.02176e+13
1.02148e+13
1.0212e+13
1.02094e+13
1.02067e+13
1.02041e+13
1.02016e+13
1.0199e+13
1.01966e+13
1.01941e+13
1.01918e+13
1.01894e+13
1.01871e+13
1.01848e+13
1.01826e+13
1.01804e+13
1.01783e+13
1.01761e+13
1.0174e+13
1.0172e+13
1.017e+13
1.0168e+13
1.0166e+13
1.01641e+13
1.01622e+13
1.01603e+13
1.01584e+13
1.01566e+13
1.01548e+13
1.01531e+13
1.01513e+13
1.01496e+13
1.01479e+13
1.01463e+13
1.01446e+13
1.0143e+13
1.01414e+13
1.0499e+13
1.04984e+13
1.04968e+13
1.04942e+13
1.04909e+13
1.04868e+13
1.0482e+13
1.04768e+13
1.04711e+13
1.04651e+13
1.04588e+13
1.04523e+13
1.04457e+13
1.04389e+13
1.04322e+13
1.04254e+13
1.04186e+13
1.04119e+13
1.04053e+13
1.03987e+13
1.03922e+13
1.03859e+13
1.03796e+13
1.03735e+13
1.03675e+13
1.03616e+13
1.03558e+13
1.03502e+13
1.03447e+13
1.03393e+13
1.0334e+13
1.03288e+13
1.03238e+13
1.03189e+13
1.0314e+13
1.03093e+13
1.03047e+13
1.03002e+13
1.02958e+13
1.02915e+13
1.02872e+13
1.02831e+13
1.02791e+13
1.02751e+13
1.02712e+13
1.02674e+13
1.02637e+13
1.02601e+13
1.02565e+13
1.0253e+13
1.02495e+13
1.02462e+13
1.02429e+13
1.02396e+13
1.02365e+13
1.02334e+13
1.02303e+13
1.02273e+13
1.02243e+13
1.02215e+13
1.02186e+13
1.02158e+13
1.02131e+13
1.02104e+13
1.02077e+13
1.02052e+13
1.02026e+13
1.02001e+13
1.01976e+13
1.01952e+13
1.01928e+13
1.01905e+13
1.01881e+13
1.01859e+13
1.01836e+13
1.01814e+13
1.01793e+13
1.01772e+13
1.01751e+13
1.0173e+13
1.0171e+13
1.0169e+13
1.0167e+13
1.01651e+13
1.01632e+13
1.01613e+13
1.01594e+13
1.01576e+13
1.01558e+13
1.0154e+13
1.01523e+13
1.01506e+13
1.01489e+13
1.01472e+13
1.01456e+13
1.0144e+13
1.01424e+13
1.01408e+13
1.04789e+13
1.04785e+13
1.04773e+13
1.04752e+13
1.04724e+13
1.0469e+13
1.04649e+13
1.04604e+13
1.04554e+13
1.04501e+13
1.04446e+13
1.04388e+13
1.04328e+13
1.04267e+13
1.04206e+13
1.04144e+13
1.04082e+13
1.0402e+13
1.03959e+13
1.03898e+13
1.03838e+13
1.03778e+13
1.0372e+13
1.03662e+13
1.03605e+13
1.0355e+13
1.03495e+13
1.03441e+13
1.03389e+13
1.03337e+13
1.03287e+13
1.03238e+13
1.03189e+13
1.03142e+13
1.03096e+13
1.0305e+13
1.03006e+13
1.02962e+13
1.0292e+13
1.02878e+13
1.02837e+13
1.02797e+13
1.02758e+13
1.02719e+13
1.02682e+13
1.02645e+13
1.02608e+13
1.02573e+13
1.02538e+13
1.02504e+13
1.02471e+13
1.02438e+13
1.02405e+13
1.02374e+13
1.02343e+13
1.02312e+13
1.02282e+13
1.02253e+13
1.02224e+13
1.02196e+13
1.02168e+13
1.02141e+13
1.02114e+13
1.02087e+13
1.02061e+13
1.02036e+13
1.02011e+13
1.01986e+13
1.01962e+13
1.01938e+13
1.01915e+13
1.01892e+13
1.01869e+13
1.01846e+13
1.01824e+13
1.01803e+13
1.01781e+13
1.01761e+13
1.0174e+13
1.0172e+13
1.017e+13
1.0168e+13
1.0166e+13
1.01641e+13
1.01622e+13
1.01604e+13
1.01586e+13
1.01568e+13
1.0155e+13
1.01532e+13
1.01515e+13
1.01498e+13
1.01482e+13
1.01465e+13
1.01449e+13
1.01433e+13
1.01417e+13
1.01402e+13
1.04605e+13
1.04603e+13
1.04593e+13
1.04577e+13
1.04554e+13
1.04524e+13
1.0449e+13
1.0445e+13
1.04407e+13
1.0436e+13
1.04311e+13
1.04259e+13
1.04205e+13
1.0415e+13
1.04095e+13
1.04038e+13
1.03981e+13
1.03924e+13
1.03867e+13
1.03811e+13
1.03755e+13
1.03699e+13
1.03644e+13
1.0359e+13
1.03537e+13
1.03484e+13
1.03432e+13
1.03382e+13
1.03332e+13
1.03283e+13
1.03234e+13
1.03187e+13
1.03141e+13
1.03096e+13
1.03051e+13
1.03007e+13
1.02965e+13
1.02923e+13
1.02881e+13
1.02841e+13
1.02802e+13
1.02763e+13
1.02725e+13
1.02687e+13
1.02651e+13
1.02615e+13
1.0258e+13
1.02545e+13
1.02511e+13
1.02478e+13
1.02446e+13
1.02414e+13
1.02382e+13
1.02351e+13
1.02321e+13
1.02291e+13
1.02262e+13
1.02233e+13
1.02205e+13
1.02177e+13
1.0215e+13
1.02123e+13
1.02097e+13
1.02071e+13
1.02045e+13
1.0202e+13
1.01996e+13
1.01972e+13
1.01948e+13
1.01924e+13
1.01901e+13
1.01878e+13
1.01856e+13
1.01834e+13
1.01812e+13
1.01791e+13
1.0177e+13
1.01749e+13
1.01729e+13
1.01709e+13
1.01689e+13
1.0167e+13
1.01651e+13
1.01632e+13
1.01613e+13
1.01595e+13
1.01577e+13
1.01559e+13
1.01542e+13
1.01524e+13
1.01507e+13
1.01491e+13
1.01474e+13
1.01458e+13
1.01442e+13
1.01426e+13
1.0141e+13
1.01395e+13
1.04436e+13
1.04435e+13
1.04428e+13
1.04414e+13
1.04395e+13
1.0437e+13
1.0434e+13
1.04306e+13
1.04268e+13
1.04227e+13
1.04183e+13
1.04136e+13
1.04088e+13
1.04038e+13
1.03988e+13
1.03936e+13
1.03884e+13
1.03831e+13
1.03779e+13
1.03726e+13
1.03674e+13
1.03622e+13
1.03571e+13
1.0352e+13
1.0347e+13
1.0342e+13
1.03371e+13
1.03323e+13
1.03275e+13
1.03229e+13
1.03183e+13
1.03137e+13
1.03093e+13
1.0305e+13
1.03007e+13
1.02965e+13
1.02924e+13
1.02883e+13
1.02844e+13
1.02805e+13
1.02766e+13
1.02729e+13
1.02692e+13
1.02656e+13
1.0262e+13
1.02586e+13
1.02551e+13
1.02518e+13
1.02485e+13
1.02453e+13
1.02421e+13
1.0239e+13
1.02359e+13
1.02329e+13
1.02299e+13
1.0227e+13
1.02241e+13
1.02213e+13
1.02186e+13
1.02159e+13
1.02132e+13
1.02106e+13
1.0208e+13
1.02054e+13
1.02029e+13
1.02005e+13
1.01981e+13
1.01957e+13
1.01933e+13
1.0191e+13
1.01888e+13
1.01865e+13
1.01843e+13
1.01822e+13
1.018e+13
1.01779e+13
1.01759e+13
1.01738e+13
1.01718e+13
1.01699e+13
1.01679e+13
1.0166e+13
1.01641e+13
1.01623e+13
1.01604e+13
1.01586e+13
1.01568e+13
1.01551e+13
1.01534e+13
1.01517e+13
1.015e+13
1.01483e+13
1.01467e+13
1.01451e+13
1.01435e+13
1.01419e+13
1.01404e+13
1.01389e+13
1.04279e+13
1.0428e+13
1.04275e+13
1.04264e+13
1.04247e+13
1.04226e+13
1.042e+13
1.0417e+13
1.04137e+13
1.041e+13
1.04061e+13
1.0402e+13
1.03976e+13
1.03931e+13
1.03885e+13
1.03838e+13
1.0379e+13
1.03742e+13
1.03693e+13
1.03644e+13
1.03596e+13
1.03547e+13
1.03499e+13
1.03451e+13
1.03404e+13
1.03357e+13
1.0331e+13
1.03265e+13
1.0322e+13
1.03175e+13
1.03131e+13
1.03088e+13
1.03046e+13
1.03004e+13
1.02963e+13
1.02923e+13
1.02883e+13
1.02844e+13
1.02806e+13
1.02769e+13
1.02732e+13
1.02695e+13
1.0266e+13
1.02625e+13
1.0259e+13
1.02556e+13
1.02523e+13
1.02491e+13
1.02459e+13
1.02427e+13
1.02396e+13
1.02366e+13
1.02336e+13
1.02306e+13
1.02277e+13
1.02249e+13
1.02221e+13
1.02194e+13
1.02167e+13
1.0214e+13
1.02114e+13
1.02088e+13
1.02063e+13
1.02038e+13
1.02013e+13
1.01989e+13
1.01966e+13
1.01942e+13
1.01919e+13
1.01897e+13
1.01874e+13
1.01852e+13
1.01831e+13
1.01809e+13
1.01788e+13
1.01768e+13
1.01747e+13
1.01727e+13
1.01708e+13
1.01688e+13
1.01669e+13
1.0165e+13
1.01632e+13
1.01613e+13
1.01595e+13
1.01577e+13
1.0156e+13
1.01542e+13
1.01525e+13
1.01509e+13
1.01492e+13
1.01476e+13
1.01459e+13
1.01443e+13
1.01428e+13
1.01412e+13
1.01397e+13
1.01382e+13
1.04134e+13
1.04136e+13
1.04132e+13
1.04123e+13
1.04109e+13
1.04091e+13
1.04069e+13
1.04043e+13
1.04013e+13
1.03981e+13
1.03946e+13
1.03909e+13
1.03869e+13
1.03828e+13
1.03786e+13
1.03743e+13
1.03699e+13
1.03655e+13
1.0361e+13
1.03564e+13
1.03519e+13
1.03474e+13
1.03429e+13
1.03384e+13
1.03339e+13
1.03295e+13
1.03251e+13
1.03208e+13
1.03165e+13
1.03123e+13
1.03081e+13
1.0304e+13
1.02999e+13
1.02959e+13
1.0292e+13
1.02881e+13
1.02843e+13
1.02806e+13
1.02769e+13
1.02733e+13
1.02697e+13
1.02662e+13
1.02627e+13
1.02594e+13
1.0256e+13
1.02527e+13
1.02495e+13
1.02463e+13
1.02432e+13
1.02402e+13
1.02371e+13
1.02342e+13
1.02313e+13
1.02284e+13
1.02256e+13
1.02228e+13
1.02201e+13
1.02174e+13
1.02147e+13
1.02121e+13
1.02096e+13
1.02071e+13
1.02046e+13
1.02021e+13
1.01997e+13
1.01974e+13
1.01951e+13
1.01928e+13
1.01905e+13
1.01883e+13
1.01861e+13
1.01839e+13
1.01818e+13
1.01797e+13
1.01776e+13
1.01756e+13
1.01736e+13
1.01716e+13
1.01697e+13
1.01678e+13
1.01659e+13
1.0164e+13
1.01622e+13
1.01604e+13
1.01586e+13
1.01568e+13
1.01551e+13
1.01534e+13
1.01517e+13
1.01501e+13
1.01484e+13
1.01468e+13
1.01452e+13
1.01436e+13
1.01421e+13
1.01405e+13
1.0139e+13
1.01375e+13
1.04e+13
1.04002e+13
1.03999e+13
1.03992e+13
1.03981e+13
1.03965e+13
1.03945e+13
1.03923e+13
1.03897e+13
1.03868e+13
1.03836e+13
1.03803e+13
1.03767e+13
1.0373e+13
1.03692e+13
1.03652e+13
1.03612e+13
1.03571e+13
1.03529e+13
1.03487e+13
1.03445e+13
1.03403e+13
1.0336e+13
1.03318e+13
1.03276e+13
1.03234e+13
1.03193e+13
1.03152e+13
1.03111e+13
1.03071e+13
1.03031e+13
1.02992e+13
1.02953e+13
1.02915e+13
1.02877e+13
1.0284e+13
1.02804e+13
1.02768e+13
1.02732e+13
1.02697e+13
1.02663e+13
1.02629e+13
1.02595e+13
1.02563e+13
1.0253e+13
1.02499e+13
1.02467e+13
1.02436e+13
1.02406e+13
1.02376e+13
1.02347e+13
1.02318e+13
1.0229e+13
1.02262e+13
1.02234e+13
1.02207e+13
1.02181e+13
1.02154e+13
1.02128e+13
1.02103e+13
1.02078e+13
1.02053e+13
1.02029e+13
1.02005e+13
1.01982e+13
1.01958e+13
1.01936e+13
1.01913e+13
1.01891e+13
1.01869e+13
1.01847e+13
1.01826e+13
1.01805e+13
1.01785e+13
1.01765e+13
1.01745e+13
1.01725e+13
1.01705e+13
1.01686e+13
1.01667e+13
1.01649e+13
1.0163e+13
1.01612e+13
1.01594e+13
1.01577e+13
1.0156e+13
1.01542e+13
1.01526e+13
1.01509e+13
1.01493e+13
1.01476e+13
1.0146e+13
1.01445e+13
1.01429e+13
1.01414e+13
1.01399e+13
1.01384e+13
1.01369e+13
1.03874e+13
1.03877e+13
1.03875e+13
1.03869e+13
1.0386e+13
1.03846e+13
1.03829e+13
1.03809e+13
1.03786e+13
1.0376e+13
1.03732e+13
1.03702e+13
1.0367e+13
1.03636e+13
1.03601e+13
1.03565e+13
1.03528e+13
1.0349e+13
1.03451e+13
1.03412e+13
1.03373e+13
1.03333e+13
1.03294e+13
1.03254e+13
1.03215e+13
1.03175e+13
1.03136e+13
1.03097e+13
1.03059e+13
1.0302e+13
1.02983e+13
1.02945e+13
1.02908e+13
1.02872e+13
1.02835e+13
1.028e+13
1.02765e+13
1.0273e+13
1.02696e+13
1.02662e+13
1.02629e+13
1.02596e+13
1.02564e+13
1.02532e+13
1.02501e+13
1.0247e+13
1.0244e+13
1.0241e+13
1.0238e+13
1.02351e+13
1.02323e+13
1.02295e+13
1.02267e+13
1.0224e+13
1.02213e+13
1.02186e+13
1.0216e+13
1.02135e+13
1.02109e+13
1.02085e+13
1.0206e+13
1.02036e+13
1.02012e+13
1.01989e+13
1.01966e+13
1.01943e+13
1.01921e+13
1.01898e+13
1.01877e+13
1.01855e+13
1.01834e+13
1.01813e+13
1.01793e+13
1.01773e+13
1.01753e+13
1.01733e+13
1.01714e+13
1.01694e+13
1.01676e+13
1.01657e+13
1.01639e+13
1.01621e+13
1.01603e+13
1.01585e+13
1.01568e+13
1.01551e+13
1.01534e+13
1.01517e+13
1.01501e+13
1.01485e+13
1.01469e+13
1.01453e+13
1.01437e+13
1.01422e+13
1.01407e+13
1.01392e+13
1.01377e+13
1.01362e+13
1.03757e+13
1.0376e+13
1.03759e+13
1.03754e+13
1.03746e+13
1.03735e+13
1.0372e+13
1.03702e+13
1.03682e+13
1.03659e+13
1.03633e+13
1.03606e+13
1.03577e+13
1.03546e+13
1.03514e+13
1.03481e+13
1.03447e+13
1.03412e+13
1.03376e+13
1.0334e+13
1.03303e+13
1.03266e+13
1.03229e+13
1.03192e+13
1.03155e+13
1.03118e+13
1.03081e+13
1.03044e+13
1.03007e+13
1.02971e+13
1.02935e+13
1.02899e+13
1.02864e+13
1.02829e+13
1.02794e+13
1.0276e+13
1.02726e+13
1.02693e+13
1.0266e+13
1.02627e+13
1.02595e+13
1.02564e+13
1.02533e+13
1.02502e+13
1.02471e+13
1.02442e+13
1.02412e+13
1.02383e+13
1.02355e+13
1.02326e+13
1.02299e+13
1.02271e+13
1.02244e+13
1.02218e+13
1.02192e+13
1.02166e+13
1.0214e+13
1.02115e+13
1.02091e+13
1.02066e+13
1.02042e+13
1.02019e+13
1.01995e+13
1.01973e+13
1.0195e+13
1.01928e+13
1.01906e+13
1.01884e+13
1.01863e+13
1.01842e+13
1.01821e+13
1.018e+13
1.0178e+13
1.0176e+13
1.01741e+13
1.01721e+13
1.01702e+13
1.01683e+13
1.01665e+13
1.01647e+13
1.01628e+13
1.01611e+13
1.01593e+13
1.01576e+13
1.01559e+13
1.01542e+13
1.01525e+13
1.01509e+13
1.01493e+13
1.01477e+13
1.01461e+13
1.01445e+13
1.0143e+13
1.01415e+13
1.014e+13
1.01385e+13
1.0137e+13
1.01356e+13
1.0364e+13
1.03647e+13
1.0365e+13
1.0365e+13
1.03646e+13
1.03639e+13
1.03629e+13
1.03616e+13
1.03601e+13
1.03583e+13
1.03562e+13
1.03539e+13
1.03515e+13
1.03488e+13
1.0346e+13
1.03431e+13
1.034e+13
1.03369e+13
1.03336e+13
1.03303e+13
1.0327e+13
1.03235e+13
1.03201e+13
1.03166e+13
1.03131e+13
1.03096e+13
1.03061e+13
1.03026e+13