/*--------------------------------*- C++ -*----------------------------------*\
  =========                 |
  \\      /  F ield         | OpenFOAM: The Open Source CFD Toolbox
   \\    /   O peration     | Website:  https://openfoam.org
    \\  /    A nd           | Version:  7
     \\/     M anipulation  |
\*---------------------------------------------------------------------------*/
FoamFile
{
    version     2.0;
    format      ascii;
    class       volScalarField;
    location    "9e-13";
    object      ne;
}
// * * * * * * * * * * * * * * * * * * * * * * * * * * * * * * * * * * * * * //

dimensions      [0 -3 0 0 0 0 0];

internalField   nonuniform List<scalar> 
15066
(
1.01131e+13
1.01131e+13
1.01131e+13
1.01132e+13
1.01133e+13
1.01134e+13
1.01136e+13
1.01137e+13
1.01139e+13
1.01142e+13
1.01144e+13
1.01147e+13
1.0115e+13
1.01153e+13
1.01156e+13
1.0116e+13
1.01164e+13
1.01168e+13
1.01173e+13
1.01178e+13
1.01183e+13
1.01188e+13
1.01194e+13
1.012e+13
1.01207e+13
1.01213e+13
1.0122e+13
1.01228e+13
1.01235e+13
1.01243e+13
1.01252e+13
1.0126e+13
1.01269e+13
1.01279e+13
1.01289e+13
1.01299e+13
1.0131e+13
1.01321e+13
1.01333e+13
1.01345e+13
1.01358e+13
1.01371e+13
1.01384e+13
1.01399e+13
1.01413e+13
1.01429e+13
1.01445e+13
1.01462e+13
1.01479e+13
1.01497e+13
1.01516e+13
1.01536e+13
1.01556e+13
1.01577e+13
1.016e+13
1.01623e+13
1.01647e+13
1.01672e+13
1.01699e+13
1.01726e+13
1.01755e+13
1.01786e+13
1.01817e+13
1.01851e+13
1.01886e+13
1.01922e+13
1.01961e+13
1.02001e+13
1.02044e+13
1.02089e+13
1.02137e+13
1.02187e+13
1.0224e+13
1.02297e+13
1.02357e+13
1.0242e+13
1.02488e+13
1.0256e+13
1.02637e+13
1.02719e+13
1.02806e+13
1.02899e+13
1.02999e+13
1.03106e+13
1.03219e+13
1.0334e+13
1.03468e+13
1.03602e+13
1.03743e+13
1.0389e+13
1.04043e+13
1.042e+13
1.0436e+13
1.04521e+13
1.0468e+13
1.04837e+13
1.04985e+13
1.05106e+13
1.05161e+13
1.05075e+13
1.01129e+13
1.0113e+13
1.0113e+13
1.01131e+13
1.01132e+13
1.01133e+13
1.01134e+13
1.01136e+13
1.01138e+13
1.0114e+13
1.01143e+13
1.01145e+13
1.01148e+13
1.01152e+13
1.01155e+13
1.01159e+13
1.01163e+13
1.01167e+13
1.01172e+13
1.01176e+13
1.01182e+13
1.01187e+13
1.01193e+13
1.01199e+13
1.01205e+13
1.01212e+13
1.01219e+13
1.01226e+13
1.01234e+13
1.01242e+13
1.0125e+13
1.01259e+13
1.01268e+13
1.01277e+13
1.01287e+13
1.01297e+13
1.01308e+13
1.01319e+13
1.01331e+13
1.01343e+13
1.01356e+13
1.01369e+13
1.01382e+13
1.01397e+13
1.01411e+13
1.01427e+13
1.01443e+13
1.01459e+13
1.01477e+13
1.01495e+13
1.01513e+13
1.01533e+13
1.01553e+13
1.01575e+13
1.01597e+13
1.0162e+13
1.01644e+13
1.01669e+13
1.01695e+13
1.01723e+13
1.01751e+13
1.01782e+13
1.01813e+13
1.01846e+13
1.01881e+13
1.01917e+13
1.01955e+13
1.01995e+13
1.02038e+13
1.02082e+13
1.02129e+13
1.02179e+13
1.02232e+13
1.02287e+13
1.02346e+13
1.02408e+13
1.02475e+13
1.02545e+13
1.0262e+13
1.027e+13
1.02785e+13
1.02875e+13
1.02972e+13
1.03074e+13
1.03183e+13
1.03298e+13
1.03419e+13
1.03546e+13
1.03678e+13
1.03815e+13
1.03956e+13
1.041e+13
1.04246e+13
1.04391e+13
1.04532e+13
1.04668e+13
1.04791e+13
1.04885e+13
1.04933e+13
1.04943e+13
1.01128e+13
1.01128e+13
1.01129e+13
1.01129e+13
1.0113e+13
1.01132e+13
1.01133e+13
1.01135e+13
1.01137e+13
1.01139e+13
1.01141e+13
1.01144e+13
1.01147e+13
1.0115e+13
1.01154e+13
1.01157e+13
1.01161e+13
1.01166e+13
1.0117e+13
1.01175e+13
1.0118e+13
1.01185e+13
1.01191e+13
1.01197e+13
1.01204e+13
1.0121e+13
1.01217e+13
1.01224e+13
1.01232e+13
1.0124e+13
1.01248e+13
1.01257e+13
1.01266e+13
1.01276e+13
1.01285e+13
1.01296e+13
1.01306e+13
1.01317e+13
1.01329e+13
1.01341e+13
1.01354e+13
1.01367e+13
1.0138e+13
1.01395e+13
1.01409e+13
1.01425e+13
1.0144e+13
1.01457e+13
1.01474e+13
1.01492e+13
1.01511e+13
1.0153e+13
1.01551e+13
1.01572e+13
1.01594e+13
1.01617e+13
1.01641e+13
1.01666e+13
1.01692e+13
1.01719e+13
1.01748e+13
1.01778e+13
1.01809e+13
1.01842e+13
1.01876e+13
1.01912e+13
1.0195e+13
1.0199e+13
1.02032e+13
1.02076e+13
1.02122e+13
1.02172e+13
1.02223e+13
1.02278e+13
1.02336e+13
1.02398e+13
1.02463e+13
1.02532e+13
1.02606e+13
1.02684e+13
1.02767e+13
1.02855e+13
1.02949e+13
1.03048e+13
1.03153e+13
1.03264e+13
1.03381e+13
1.03502e+13
1.03628e+13
1.03758e+13
1.03892e+13
1.04029e+13
1.04165e+13
1.043e+13
1.04431e+13
1.04555e+13
1.04667e+13
1.04756e+13
1.04803e+13
1.04812e+13
1.01126e+13
1.01127e+13
1.01127e+13
1.01128e+13
1.01129e+13
1.0113e+13
1.01131e+13
1.01133e+13
1.01135e+13
1.01137e+13
1.0114e+13
1.01142e+13
1.01145e+13
1.01149e+13
1.01152e+13
1.01156e+13
1.0116e+13
1.01164e+13
1.01168e+13
1.01173e+13
1.01178e+13
1.01184e+13
1.01189e+13
1.01195e+13
1.01202e+13
1.01208e+13
1.01215e+13
1.01223e+13
1.0123e+13
1.01238e+13
1.01246e+13
1.01255e+13
1.01264e+13
1.01273e+13
1.01283e+13
1.01294e+13
1.01304e+13
1.01315e+13
1.01327e+13
1.01339e+13
1.01351e+13
1.01364e+13
1.01378e+13
1.01392e+13
1.01407e+13
1.01422e+13
1.01438e+13
1.01454e+13
1.01471e+13
1.01489e+13
1.01508e+13
1.01527e+13
1.01547e+13
1.01568e+13
1.0159e+13
1.01613e+13
1.01637e+13
1.01662e+13
1.01688e+13
1.01715e+13
1.01743e+13
1.01773e+13
1.01804e+13
1.01836e+13
1.0187e+13
1.01906e+13
1.01943e+13
1.01983e+13
1.02024e+13
1.02068e+13
1.02114e+13
1.02162e+13
1.02213e+13
1.02267e+13
1.02324e+13
1.02384e+13
1.02448e+13
1.02516e+13
1.02588e+13
1.02664e+13
1.02744e+13
1.0283e+13
1.0292e+13
1.03016e+13
1.03117e+13
1.03223e+13
1.03334e+13
1.03449e+13
1.03568e+13
1.0369e+13
1.03815e+13
1.03941e+13
1.04067e+13
1.0419e+13
1.04308e+13
1.04417e+13
1.04513e+13
1.04592e+13
1.04643e+13
1.0466e+13
1.01125e+13
1.01125e+13
1.01125e+13
1.01126e+13
1.01127e+13
1.01128e+13
1.0113e+13
1.01131e+13
1.01133e+13
1.01135e+13
1.01138e+13
1.01141e+13
1.01143e+13
1.01147e+13
1.0115e+13
1.01154e+13
1.01158e+13
1.01162e+13
1.01167e+13
1.01171e+13
1.01176e+13
1.01182e+13
1.01187e+13
1.01193e+13
1.012e+13
1.01206e+13
1.01213e+13
1.0122e+13
1.01228e+13
1.01236e+13
1.01244e+13
1.01253e+13
1.01262e+13
1.01271e+13
1.01281e+13
1.01291e+13
1.01302e+13
1.01313e+13
1.01324e+13
1.01336e+13
1.01349e+13
1.01362e+13
1.01375e+13
1.01389e+13
1.01404e+13
1.01419e+13
1.01435e+13
1.01451e+13
1.01468e+13
1.01486e+13
1.01504e+13
1.01524e+13
1.01544e+13
1.01564e+13
1.01586e+13
1.01609e+13
1.01632e+13
1.01657e+13
1.01683e+13
1.0171e+13
1.01738e+13
1.01767e+13
1.01798e+13
1.0183e+13
1.01863e+13
1.01899e+13
1.01936e+13
1.01975e+13
1.02015e+13
1.02058e+13
1.02103e+13
1.02151e+13
1.02201e+13
1.02254e+13
1.0231e+13
1.02369e+13
1.02431e+13
1.02497e+13
1.02567e+13
1.0264e+13
1.02718e+13
1.02801e+13
1.02888e+13
1.0298e+13
1.03076e+13
1.03177e+13
1.03282e+13
1.03391e+13
1.03502e+13
1.03617e+13
1.03733e+13
1.03849e+13
1.03965e+13
1.04077e+13
1.04182e+13
1.04279e+13
1.04364e+13
1.04432e+13
1.04479e+13
1.04499e+13
1.01123e+13
1.01123e+13
1.01123e+13
1.01124e+13
1.01125e+13
1.01126e+13
1.01128e+13
1.01129e+13
1.01131e+13
1.01133e+13
1.01136e+13
1.01138e+13
1.01141e+13
1.01145e+13
1.01148e+13
1.01152e+13
1.01156e+13
1.0116e+13
1.01164e+13
1.01169e+13
1.01174e+13
1.0118e+13
1.01185e+13
1.01191e+13
1.01197e+13
1.01204e+13
1.01211e+13
1.01218e+13
1.01226e+13
1.01233e+13
1.01242e+13
1.0125e+13
1.01259e+13
1.01269e+13
1.01278e+13
1.01288e+13
1.01299e+13
1.0131e+13
1.01321e+13
1.01333e+13
1.01346e+13
1.01359e+13
1.01372e+13
1.01386e+13
1.014e+13
1.01415e+13
1.01431e+13
1.01447e+13
1.01464e+13
1.01482e+13
1.015e+13
1.01519e+13
1.01539e+13
1.0156e+13
1.01581e+13
1.01604e+13
1.01627e+13
1.01652e+13
1.01677e+13
1.01704e+13
1.01731e+13
1.0176e+13
1.01791e+13
1.01823e+13
1.01856e+13
1.01891e+13
1.01927e+13
1.01965e+13
1.02005e+13
1.02048e+13
1.02092e+13
1.02139e+13
1.02188e+13
1.02239e+13
1.02294e+13
1.02351e+13
1.02412e+13
1.02476e+13
1.02543e+13
1.02615e+13
1.0269e+13
1.02769e+13
1.02853e+13
1.0294e+13
1.03032e+13
1.03128e+13
1.03227e+13
1.03329e+13
1.03433e+13
1.03539e+13
1.03646e+13
1.03753e+13
1.03858e+13
1.0396e+13
1.04055e+13
1.04141e+13
1.04215e+13
1.04275e+13
1.04318e+13
1.0434e+13
1.0112e+13
1.01121e+13
1.01121e+13
1.01122e+13
1.01123e+13
1.01124e+13
1.01125e+13
1.01127e+13
1.01129e+13
1.01131e+13
1.01133e+13
1.01136e+13
1.01139e+13
1.01142e+13
1.01146e+13
1.01149e+13
1.01153e+13
1.01157e+13
1.01162e+13
1.01167e+13
1.01172e+13
1.01177e+13
1.01183e+13
1.01189e+13
1.01195e+13
1.01201e+13
1.01208e+13
1.01215e+13
1.01223e+13
1.01231e+13
1.01239e+13
1.01247e+13
1.01256e+13
1.01266e+13
1.01275e+13
1.01285e+13
1.01296e+13
1.01307e+13
1.01318e+13
1.0133e+13
1.01342e+13
1.01355e+13
1.01368e+13
1.01382e+13
1.01397e+13
1.01412e+13
1.01427e+13
1.01443e+13
1.0146e+13
1.01478e+13
1.01496e+13
1.01515e+13
1.01534e+13
1.01555e+13
1.01576e+13
1.01598e+13
1.01622e+13
1.01646e+13
1.01671e+13
1.01697e+13
1.01725e+13
1.01753e+13
1.01783e+13
1.01814e+13
1.01847e+13
1.01881e+13
1.01917e+13
1.01955e+13
1.01994e+13
1.02036e+13
1.02079e+13
1.02125e+13
1.02173e+13
1.02223e+13
1.02276e+13
1.02332e+13
1.02391e+13
1.02453e+13
1.02518e+13
1.02587e+13
1.02659e+13
1.02735e+13
1.02815e+13
1.02898e+13
1.02985e+13
1.03075e+13
1.03168e+13
1.03263e+13
1.03361e+13
1.03459e+13
1.03558e+13
1.03656e+13
1.03751e+13
1.03842e+13
1.03928e+13
1.04004e+13
1.0407e+13
1.04123e+13
1.04162e+13
1.04184e+13
1.01118e+13
1.01118e+13
1.01118e+13
1.01119e+13
1.0112e+13
1.01121e+13
1.01123e+13
1.01124e+13
1.01126e+13
1.01128e+13
1.01131e+13
1.01134e+13
1.01136e+13
1.0114e+13
1.01143e+13
1.01147e+13
1.01151e+13
1.01155e+13
1.01159e+13
1.01164e+13
1.01169e+13
1.01174e+13
1.0118e+13
1.01186e+13
1.01192e+13
1.01198e+13
1.01205e+13
1.01212e+13
1.0122e+13
1.01228e+13
1.01236e+13
1.01244e+13
1.01253e+13
1.01262e+13
1.01272e+13
1.01282e+13
1.01292e+13
1.01303e+13
1.01315e+13
1.01326e+13
1.01339e+13
1.01351e+13
1.01364e+13
1.01378e+13
1.01392e+13
1.01407e+13
1.01423e+13
1.01439e+13
1.01455e+13
1.01473e+13
1.01491e+13
1.01509e+13
1.01529e+13
1.01549e+13
1.0157e+13
1.01592e+13
1.01615e+13
1.01639e+13
1.01664e+13
1.0169e+13
1.01717e+13
1.01745e+13
1.01775e+13
1.01805e+13
1.01838e+13
1.01871e+13
1.01906e+13
1.01943e+13
1.01982e+13
1.02022e+13
1.02065e+13
1.02109e+13
1.02156e+13
1.02205e+13
1.02257e+13
1.02311e+13
1.02368e+13
1.02428e+13
1.02491e+13
1.02557e+13
1.02626e+13
1.02698e+13
1.02774e+13
1.02853e+13
1.02935e+13
1.0302e+13
1.03107e+13
1.03196e+13
1.03286e+13
1.03377e+13
1.03468e+13
1.03557e+13
1.03644e+13
1.03726e+13
1.03803e+13
1.03872e+13
1.03931e+13
1.03978e+13
1.04012e+13
1.04033e+13
1.01115e+13
1.01115e+13
1.01116e+13
1.01116e+13
1.01117e+13
1.01119e+13
1.0112e+13
1.01122e+13
1.01124e+13
1.01126e+13
1.01128e+13
1.01131e+13
1.01134e+13
1.01137e+13
1.0114e+13
1.01144e+13
1.01148e+13
1.01152e+13
1.01156e+13
1.01161e+13
1.01166e+13
1.01171e+13
1.01177e+13
1.01183e+13
1.01189e+13
1.01195e+13
1.01202e+13
1.01209e+13
1.01217e+13
1.01224e+13
1.01232e+13
1.01241e+13
1.0125e+13
1.01259e+13
1.01268e+13
1.01278e+13
1.01289e+13
1.01299e+13
1.01311e+13
1.01322e+13
1.01334e+13
1.01347e+13
1.0136e+13
1.01374e+13
1.01388e+13
1.01403e+13
1.01418e+13
1.01434e+13
1.0145e+13
1.01467e+13
1.01485e+13
1.01504e+13
1.01523e+13
1.01543e+13
1.01564e+13
1.01586e+13
1.01608e+13
1.01632e+13
1.01656e+13
1.01682e+13
1.01708e+13
1.01736e+13
1.01765e+13
1.01796e+13
1.01827e+13
1.0186e+13
1.01895e+13
1.01931e+13
1.01969e+13
1.02008e+13
1.0205e+13
1.02093e+13
1.02138e+13
1.02186e+13
1.02236e+13
1.02289e+13
1.02344e+13
1.02401e+13
1.02462e+13
1.02525e+13
1.02591e+13
1.0266e+13
1.02732e+13
1.02807e+13
1.02884e+13
1.02964e+13
1.03045e+13
1.03128e+13
1.03211e+13
1.03295e+13
1.03378e+13
1.0346e+13
1.03538e+13
1.03612e+13
1.03681e+13
1.03743e+13
1.03796e+13
1.03839e+13
1.03871e+13
1.0389e+13
1.01112e+13
1.01112e+13
1.01113e+13
1.01114e+13
1.01114e+13
1.01116e+13
1.01117e+13
1.01119e+13
1.01121e+13
1.01123e+13
1.01125e+13
1.01128e+13
1.01131e+13
1.01134e+13
1.01137e+13
1.01141e+13
1.01145e+13
1.01149e+13
1.01153e+13
1.01158e+13
1.01163e+13
1.01168e+13
1.01174e+13
1.01179e+13
1.01185e+13
1.01192e+13
1.01199e+13
1.01206e+13
1.01213e+13
1.01221e+13
1.01229e+13
1.01237e+13
1.01246e+13
1.01255e+13
1.01264e+13
1.01274e+13
1.01285e+13
1.01295e+13
1.01306e+13
1.01318e+13
1.0133e+13
1.01343e+13
1.01356e+13
1.01369e+13
1.01383e+13
1.01398e+13
1.01413e+13
1.01428e+13
1.01445e+13
1.01462e+13
1.01479e+13
1.01498e+13
1.01517e+13
1.01536e+13
1.01557e+13
1.01578e+13
1.01601e+13
1.01624e+13
1.01648e+13
1.01673e+13
1.01699e+13
1.01727e+13
1.01755e+13
1.01785e+13
1.01816e+13
1.01848e+13
1.01882e+13
1.01917e+13
1.01954e+13
1.01993e+13
1.02033e+13
1.02075e+13
1.0212e+13
1.02166e+13
1.02214e+13
1.02265e+13
1.02318e+13
1.02373e+13
1.02431e+13
1.02492e+13
1.02555e+13
1.0262e+13
1.02688e+13
1.02759e+13
1.02832e+13
1.02906e+13
1.02982e+13
1.03059e+13
1.03136e+13
1.03213e+13
1.0329e+13
1.03364e+13
1.03435e+13
1.03502e+13
1.03564e+13
1.0362e+13
1.03668e+13
1.03707e+13
1.03736e+13
1.03755e+13
1.01109e+13
1.01109e+13
1.0111e+13
1.0111e+13
1.01111e+13
1.01112e+13
1.01114e+13
1.01115e+13
1.01117e+13
1.01119e+13
1.01122e+13
1.01124e+13
1.01127e+13
1.0113e+13
1.01134e+13
1.01137e+13
1.01141e+13
1.01145e+13
1.0115e+13
1.01154e+13
1.01159e+13
1.01165e+13
1.0117e+13
1.01176e+13
1.01182e+13
1.01188e+13
1.01195e+13
1.01202e+13
1.01209e+13
1.01217e+13
1.01225e+13
1.01233e+13
1.01242e+13
1.01251e+13
1.0126e+13
1.0127e+13
1.0128e+13
1.01291e+13
1.01302e+13
1.01313e+13
1.01325e+13
1.01338e+13
1.01351e+13
1.01364e+13
1.01378e+13
1.01392e+13
1.01407e+13
1.01423e+13
1.01439e+13
1.01456e+13
1.01473e+13
1.01491e+13
1.0151e+13
1.01529e+13
1.0155e+13
1.01571e+13
1.01593e+13
1.01616e+13
1.01639e+13
1.01664e+13
1.0169e+13
1.01717e+13
1.01745e+13
1.01774e+13
1.01804e+13
1.01836e+13
1.01869e+13
1.01903e+13
1.01939e+13
1.01977e+13
1.02016e+13
1.02057e+13
1.021e+13
1.02144e+13
1.02191e+13
1.0224e+13
1.02291e+13
1.02344e+13
1.02399e+13
1.02457e+13
1.02517e+13
1.02579e+13
1.02644e+13
1.0271e+13
1.02779e+13
1.02848e+13
1.02919e+13
1.0299e+13
1.03061e+13
1.03132e+13
1.03202e+13
1.0327e+13
1.03335e+13
1.03396e+13
1.03452e+13
1.03502e+13
1.03545e+13
1.03581e+13
1.03608e+13
1.03626e+13
1.01106e+13
1.01106e+13
1.01106e+13
1.01107e+13
1.01108e+13
1.01109e+13
1.0111e+13
1.01112e+13
1.01114e+13
1.01116e+13
1.01118e+13
1.01121e+13
1.01124e+13
1.01127e+13
1.0113e+13
1.01134e+13
1.01138e+13
1.01142e+13
1.01146e+13
1.01151e+13
1.01156e+13
1.01161e+13
1.01166e+13
1.01172e+13
1.01178e+13
1.01184e+13
1.01191e+13
1.01198e+13
1.01205e+13
1.01213e+13
1.01221e+13
1.01229e+13
1.01238e+13
1.01246e+13
1.01256e+13
1.01266e+13
1.01276e+13
1.01286e+13
1.01297e+13
1.01308e+13
1.0132e+13
1.01332e+13
1.01345e+13
1.01358e+13
1.01372e+13
1.01386e+13
1.01401e+13
1.01417e+13
1.01432e+13
1.01449e+13
1.01466e+13
1.01484e+13
1.01503e+13
1.01522e+13
1.01542e+13
1.01563e+13
1.01584e+13
1.01607e+13
1.0163e+13
1.01654e+13
1.0168e+13
1.01706e+13
1.01733e+13
1.01762e+13
1.01792e+13
1.01822e+13
1.01855e+13
1.01888e+13
1.01923e+13
1.0196e+13
1.01998e+13
1.02038e+13
1.02079e+13
1.02122e+13
1.02167e+13
1.02214e+13
1.02263e+13
1.02314e+13
1.02367e+13
1.02422e+13
1.02479e+13
1.02538e+13
1.02598e+13
1.02661e+13
1.02725e+13
1.0279e+13
1.02856e+13
1.02922e+13
1.02988e+13
1.03053e+13
1.03117e+13
1.03179e+13
1.03238e+13
1.03293e+13
1.03344e+13
1.03389e+13
1.03428e+13
1.03461e+13
1.03486e+13
1.03504e+13
1.01102e+13
1.01102e+13
1.01103e+13
1.01103e+13
1.01104e+13
1.01105e+13
1.01107e+13
1.01108e+13
1.0111e+13
1.01112e+13
1.01115e+13
1.01117e+13
1.0112e+13
1.01123e+13
1.01126e+13
1.0113e+13
1.01134e+13
1.01138e+13
1.01142e+13
1.01147e+13
1.01152e+13
1.01157e+13
1.01162e+13
1.01168e+13
1.01174e+13
1.0118e+13
1.01187e+13
1.01194e+13
1.01201e+13
1.01208e+13
1.01216e+13
1.01224e+13
1.01233e+13
1.01242e+13
1.01251e+13
1.01261e+13
1.01271e+13
1.01281e+13
1.01292e+13
1.01303e+13
1.01315e+13
1.01327e+13
1.0134e+13
1.01353e+13
1.01366e+13
1.0138e+13
1.01395e+13
1.0141e+13
1.01426e+13
1.01442e+13
1.01459e+13
1.01477e+13
1.01495e+13
1.01514e+13
1.01534e+13
1.01554e+13
1.01575e+13
1.01597e+13
1.0162e+13
1.01644e+13
1.01669e+13
1.01695e+13
1.01721e+13
1.01749e+13
1.01778e+13
1.01808e+13
1.0184e+13
1.01873e+13
1.01907e+13
1.01942e+13
1.01979e+13
1.02017e+13
1.02057e+13
1.02099e+13
1.02142e+13
1.02188e+13
1.02234e+13
1.02283e+13
1.02333e+13
1.02386e+13
1.0244e+13
1.02495e+13
1.02553e+13
1.02611e+13
1.02671e+13
1.02732e+13
1.02793e+13
1.02854e+13
1.02915e+13
1.02975e+13
1.03034e+13
1.03091e+13
1.03145e+13
1.03195e+13
1.03241e+13
1.03282e+13
1.03318e+13
1.03347e+13
1.0337e+13
1.03387e+13
1.01098e+13
1.01098e+13
1.01099e+13
1.011e+13
1.01101e+13
1.01102e+13
1.01103e+13
1.01105e+13
1.01106e+13
1.01109e+13
1.01111e+13
1.01113e+13
1.01116e+13
1.01119e+13
1.01123e+13
1.01126e+13
1.0113e+13
1.01134e+13
1.01138e+13
1.01143e+13
1.01148e+13
1.01153e+13
1.01158e+13
1.01164e+13
1.0117e+13
1.01176e+13
1.01182e+13
1.01189e+13
1.01196e+13
1.01204e+13
1.01212e+13
1.0122e+13
1.01228e+13
1.01237e+13
1.01246e+13
1.01256e+13
1.01265e+13
1.01276e+13
1.01286e+13
1.01298e+13
1.01309e+13
1.01321e+13
1.01334e+13
1.01346e+13
1.0136e+13
1.01374e+13
1.01388e+13
1.01403e+13
1.01419e+13
1.01435e+13
1.01451e+13
1.01469e+13
1.01487e+13
1.01505e+13
1.01525e+13
1.01545e+13
1.01566e+13
1.01587e+13
1.0161e+13
1.01633e+13
1.01658e+13
1.01683e+13
1.01709e+13
1.01736e+13
1.01765e+13
1.01794e+13
1.01825e+13
1.01856e+13
1.01889e+13
1.01924e+13
1.01959e+13
1.01997e+13
1.02035e+13
1.02075e+13
1.02117e+13
1.0216e+13
1.02205e+13
1.02252e+13
1.023e+13
1.02349e+13
1.024e+13
1.02453e+13
1.02507e+13
1.02562e+13
1.02618e+13
1.02675e+13
1.02732e+13
1.02788e+13
1.02845e+13
1.029e+13
1.02954e+13
1.03006e+13
1.03055e+13
1.03101e+13
1.03144e+13
1.03181e+13
1.03214e+13
1.03241e+13
1.03262e+13
1.03277e+13
1.01094e+13
1.01094e+13
1.01095e+13
1.01096e+13
1.01097e+13
1.01098e+13
1.01099e+13
1.01101e+13
1.01102e+13
1.01104e+13
1.01107e+13
1.01109e+13
1.01112e+13
1.01115e+13
1.01118e+13
1.01122e+13
1.01126e+13
1.0113e+13
1.01134e+13
1.01138e+13
1.01143e+13
1.01148e+13
1.01154e+13
1.01159e+13
1.01165e+13
1.01171e+13
1.01178e+13
1.01184e+13
1.01192e+13
1.01199e+13
1.01207e+13
1.01215e+13
1.01223e+13
1.01232e+13
1.01241e+13
1.0125e+13
1.0126e+13
1.0127e+13
1.01281e+13
1.01292e+13
1.01303e+13
1.01315e+13
1.01327e+13
1.0134e+13
1.01353e+13
1.01367e+13
1.01381e+13
1.01396e+13
1.01411e+13
1.01427e+13
1.01444e+13
1.01461e+13
1.01478e+13
1.01497e+13
1.01516e+13
1.01535e+13
1.01556e+13
1.01577e+13
1.01599e+13
1.01622e+13
1.01646e+13
1.0167e+13
1.01696e+13
1.01723e+13
1.0175e+13
1.01779e+13
1.01809e+13
1.01839e+13
1.01872e+13
1.01905e+13
1.01939e+13
1.01975e+13
1.02012e+13
1.02051e+13
1.02091e+13
1.02132e+13
1.02175e+13
1.0222e+13
1.02265e+13
1.02312e+13
1.02361e+13
1.02411e+13
1.02461e+13
1.02513e+13
1.02565e+13
1.02618e+13
1.02671e+13
1.02724e+13
1.02776e+13
1.02827e+13
1.02877e+13
1.02924e+13
1.0297e+13
1.03012e+13
1.0305e+13
1.03085e+13
1.03115e+13
1.0314e+13
1.03159e+13
1.03174e+13
1.0109e+13
1.0109e+13
1.01091e+13
1.01091e+13
1.01092e+13
1.01093e+13
1.01095e+13
1.01096e+13
1.01098e+13
1.011e+13
1.01102e+13
1.01105e+13
1.01108e+13
1.01111e+13
1.01114e+13
1.01117e+13
1.01121e+13
1.01125e+13
1.01129e+13
1.01134e+13
1.01139e+13
1.01144e+13
1.01149e+13
1.01154e+13
1.0116e+13
1.01166e+13
1.01173e+13
1.01179e+13
1.01186e+13
1.01194e+13
1.01201e+13
1.01209e+13
1.01218e+13
1.01226e+13
1.01235e+13
1.01245e+13
1.01254e+13
1.01264e+13
1.01275e+13
1.01286e+13
1.01297e+13
1.01309e+13
1.01321e+13
1.01333e+13
1.01346e+13
1.0136e+13
1.01374e+13
1.01388e+13
1.01404e+13
1.01419e+13
1.01435e+13
1.01452e+13
1.01469e+13
1.01488e+13
1.01506e+13
1.01526e+13
1.01546e+13
1.01566e+13
1.01588e+13
1.0161e+13
1.01634e+13
1.01658e+13
1.01683e+13
1.01709e+13
1.01735e+13
1.01763e+13
1.01792e+13
1.01822e+13
1.01853e+13
1.01885e+13
1.01919e+13
1.01953e+13
1.01989e+13
1.02026e+13
1.02065e+13
1.02104e+13
1.02145e+13
1.02187e+13
1.02231e+13
1.02276e+13
1.02321e+13
1.02368e+13
1.02416e+13
1.02464e+13
1.02513e+13
1.02563e+13
1.02612e+13
1.02661e+13
1.02709e+13
1.02756e+13
1.02802e+13
1.02846e+13
1.02887e+13
1.02926e+13
1.02961e+13
1.02993e+13
1.03021e+13
1.03044e+13
1.03062e+13
1.03076e+13
1.01086e+13
1.01086e+13
1.01086e+13
1.01087e+13
1.01088e+13
1.01089e+13
1.0109e+13
1.01092e+13
1.01094e+13
1.01096e+13
1.01098e+13
1.011e+13
1.01103e+13
1.01106e+13
1.01109e+13
1.01113e+13
1.01117e+13
1.0112e+13
1.01125e+13
1.01129e+13
1.01134e+13
1.01139e+13
1.01144e+13
1.01149e+13
1.01155e+13
1.01161e+13
1.01168e+13
1.01174e+13
1.01181e+13
1.01188e+13
1.01196e+13
1.01204e+13
1.01212e+13
1.01221e+13
1.01229e+13
1.01239e+13
1.01248e+13
1.01258e+13
1.01269e+13
1.01279e+13
1.0129e+13
1.01302e+13
1.01314e+13
1.01326e+13
1.01339e+13
1.01353e+13
1.01366e+13
1.01381e+13
1.01395e+13
1.01411e+13
1.01427e+13
1.01443e+13
1.0146e+13
1.01478e+13
1.01496e+13
1.01515e+13
1.01535e+13
1.01555e+13
1.01577e+13
1.01598e+13
1.01621e+13
1.01645e+13
1.01669e+13
1.01694e+13
1.0172e+13
1.01747e+13
1.01775e+13
1.01804e+13
1.01834e+13
1.01866e+13
1.01898e+13
1.01931e+13
1.01966e+13
1.02001e+13
1.02038e+13
1.02076e+13
1.02115e+13
1.02155e+13
1.02196e+13
1.02239e+13
1.02282e+13
1.02326e+13
1.02371e+13
1.02416e+13
1.02462e+13
1.02508e+13
1.02554e+13
1.02599e+13
1.02644e+13
1.02688e+13
1.0273e+13
1.0277e+13
1.02809e+13
1.02844e+13
1.02877e+13
1.02906e+13
1.02932e+13
1.02953e+13
1.02971e+13
1.02984e+13
1.01081e+13
1.01081e+13
1.01082e+13
1.01082e+13
1.01083e+13
1.01084e+13
1.01086e+13
1.01087e+13
1.01089e+13
1.01091e+13
1.01093e+13
1.01096e+13
1.01098e+13
1.01101e+13
1.01105e+13
1.01108e+13
1.01112e+13
1.01116e+13
1.0112e+13
1.01124e+13
1.01129e+13
1.01134e+13
1.01139e+13
1.01144e+13
1.0115e+13
1.01156e+13
1.01162e+13
1.01169e+13
1.01176e+13
1.01183e+13
1.0119e+13
1.01198e+13
1.01206e+13
1.01215e+13
1.01223e+13
1.01233e+13
1.01242e+13
1.01252e+13
1.01262e+13
1.01273e+13
1.01284e+13
1.01295e+13
1.01307e+13
1.01319e+13
1.01332e+13
1.01345e+13
1.01358e+13
1.01373e+13
1.01387e+13
1.01402e+13
1.01418e+13
1.01434e+13
1.01451e+13
1.01468e+13
1.01486e+13
1.01505e+13
1.01524e+13
1.01544e+13
1.01565e+13
1.01586e+13
1.01608e+13
1.01631e+13
1.01655e+13
1.01679e+13
1.01705e+13
1.01731e+13
1.01758e+13
1.01786e+13
1.01815e+13
1.01845e+13
1.01876e+13
1.01908e+13
1.01942e+13
1.01976e+13
1.02011e+13
1.02047e+13
1.02084e+13
1.02123e+13
1.02162e+13
1.02202e+13
1.02243e+13
1.02284e+13
1.02327e+13
1.02369e+13
1.02412e+13
1.02455e+13
1.02498e+13
1.0254e+13
1.02581e+13
1.02622e+13
1.02661e+13
1.02698e+13
1.02733e+13
1.02766e+13
1.02796e+13
1.02823e+13
1.02847e+13
1.02867e+13
1.02883e+13
1.02896e+13
1.01076e+13
1.01077e+13
1.01077e+13
1.01078e+13
1.01079e+13
1.0108e+13
1.01081e+13
1.01082e+13
1.01084e+13
1.01086e+13
1.01088e+13
1.01091e+13
1.01094e+13
1.01096e+13
1.011e+13
1.01103e+13
1.01107e+13
1.0111e+13
1.01115e+13
1.01119e+13
1.01124e+13
1.01128e+13
1.01134e+13
1.01139e+13
1.01145e+13
1.01151e+13
1.01157e+13
1.01163e+13
1.0117e+13
1.01177e+13
1.01185e+13
1.01192e+13
1.012e+13
1.01209e+13
1.01217e+13
1.01226e+13
1.01236e+13
1.01245e+13
1.01255e+13
1.01266e+13
1.01277e+13
1.01288e+13
1.01299e+13
1.01312e+13
1.01324e+13
1.01337e+13
1.0135e+13
1.01364e+13
1.01378e+13
1.01393e+13
1.01409e+13
1.01425e+13
1.01441e+13
1.01458e+13
1.01476e+13
1.01494e+13
1.01513e+13
1.01532e+13
1.01552e+13
1.01573e+13
1.01595e+13
1.01617e+13
1.0164e+13
1.01664e+13
1.01689e+13
1.01714e+13
1.01741e+13
1.01768e+13
1.01796e+13
1.01825e+13
1.01855e+13
1.01886e+13
1.01917e+13
1.0195e+13
1.01984e+13
1.02018e+13
1.02054e+13
1.0209e+13
1.02128e+13
1.02165e+13
1.02204e+13
1.02243e+13
1.02283e+13
1.02323e+13
1.02363e+13
1.02403e+13
1.02443e+13
1.02482e+13
1.02521e+13
1.02558e+13
1.02594e+13
1.02629e+13
1.02661e+13
1.02692e+13
1.0272e+13
1.02745e+13
1.02767e+13
1.02786e+13
1.02801e+13
1.02813e+13
1.01071e+13
1.01072e+13
1.01072e+13
1.01073e+13
1.01074e+13
1.01075e+13
1.01076e+13
1.01077e+13
1.01079e+13
1.01081e+13
1.01083e+13
1.01086e+13
1.01088e+13
1.01091e+13
1.01094e+13
1.01098e+13
1.01101e+13
1.01105e+13
1.01109e+13
1.01114e+13
1.01118e+13
1.01123e+13
1.01128e+13
1.01133e+13
1.01139e+13
1.01145e+13
1.01151e+13
1.01157e+13
1.01164e+13
1.01171e+13
1.01178e+13
1.01186e+13
1.01194e+13
1.01202e+13
1.01211e+13
1.0122e+13
1.01229e+13
1.01238e+13
1.01248e+13
1.01259e+13
1.01269e+13
1.0128e+13
1.01292e+13
1.01304e+13
1.01316e+13
1.01329e+13
1.01342e+13
1.01355e+13
1.0137e+13
1.01384e+13
1.01399e+13
1.01415e+13
1.01431e+13
1.01448e+13
1.01465e+13
1.01483e+13
1.01501e+13
1.0152e+13
1.0154e+13
1.0156e+13
1.01581e+13
1.01603e+13
1.01625e+13
1.01649e+13
1.01672e+13
1.01697e+13
1.01723e+13
1.01749e+13
1.01776e+13
1.01804e+13
1.01833e+13
1.01863e+13
1.01893e+13
1.01924e+13
1.01957e+13
1.0199e+13
1.02024e+13
1.02058e+13
1.02093e+13
1.02129e+13
1.02166e+13
1.02203e+13
1.0224e+13
1.02278e+13
1.02315e+13
1.02353e+13
1.0239e+13
1.02426e+13
1.02462e+13
1.02497e+13
1.0253e+13
1.02562e+13
1.02593e+13
1.02621e+13
1.02647e+13
1.0267e+13
1.0269e+13
1.02708e+13
1.02723e+13
1.02734e+13
1.01066e+13
1.01066e+13
1.01067e+13
1.01068e+13
1.01068e+13
1.01069e+13
1.01071e+13
1.01072e+13
1.01074e+13
1.01076e+13
1.01078e+13
1.01081e+13
1.01083e+13
1.01086e+13
1.01089e+13
1.01092e+13
1.01096e+13
1.011e+13
1.01104e+13
1.01108e+13
1.01113e+13
1.01117e+13
1.01122e+13
1.01128e+13
1.01133e+13
1.01139e+13
1.01145e+13
1.01151e+13
1.01158e+13
1.01165e+13
1.01172e+13
1.0118e+13
1.01188e+13
1.01196e+13
1.01204e+13
1.01213e+13
1.01222e+13
1.01231e+13
1.01241e+13
1.01251e+13
1.01262e+13
1.01273e+13
1.01284e+13
1.01296e+13
1.01308e+13
1.0132e+13
1.01333e+13
1.01347e+13
1.0136e+13
1.01375e+13
1.0139e+13
1.01405e+13
1.01421e+13
1.01437e+13
1.01454e+13
1.01471e+13
1.01489e+13
1.01508e+13
1.01527e+13
1.01547e+13
1.01567e+13
1.01588e+13
1.0161e+13
1.01633e+13
1.01656e+13
1.0168e+13
1.01705e+13
1.0173e+13
1.01756e+13
1.01783e+13
1.01811e+13
1.01839e+13
1.01869e+13
1.01899e+13
1.0193e+13
1.01961e+13
1.01993e+13
1.02026e+13
1.0206e+13
1.02094e+13
1.02128e+13
1.02163e+13
1.02198e+13
1.02234e+13
1.02269e+13
1.02304e+13
1.02338e+13
1.02372e+13
1.02405e+13
1.02438e+13
1.02469e+13
1.02499e+13
1.02527e+13
1.02553e+13
1.02577e+13
1.02599e+13
1.02618e+13
1.02634e+13
1.02648e+13
1.02659e+13
1.01061e+13
1.01061e+13
1.01062e+13
1.01062e+13
1.01063e+13
1.01064e+13
1.01065e+13
1.01067e+13
1.01069e+13
1.01071e+13
1.01073e+13
1.01075e+13
1.01078e+13
1.01081e+13
1.01084e+13
1.01087e+13
1.0109e+13
1.01094e+13
1.01098e+13
1.01102e+13
1.01107e+13
1.01112e+13
1.01116e+13
1.01122e+13
1.01127e+13
1.01133e+13
1.01139e+13
1.01145e+13
1.01152e+13
1.01159e+13
1.01166e+13
1.01173e+13
1.01181e+13
1.01189e+13
1.01197e+13
1.01206e+13
1.01215e+13
1.01224e+13
1.01234e+13
1.01244e+13
1.01254e+13
1.01265e+13
1.01276e+13
1.01287e+13
1.01299e+13
1.01312e+13
1.01324e+13
1.01337e+13
1.01351e+13
1.01365e+13
1.0138e+13
1.01395e+13
1.0141e+13
1.01426e+13
1.01442e+13
1.0146e+13
1.01477e+13
1.01495e+13
1.01514e+13
1.01533e+13
1.01553e+13
1.01574e+13
1.01595e+13
1.01617e+13
1.01639e+13
1.01662e+13
1.01686e+13
1.01711e+13
1.01736e+13
1.01762e+13
1.01789e+13
1.01816e+13
1.01844e+13
1.01873e+13
1.01903e+13
1.01933e+13
1.01963e+13
1.01995e+13
1.02026e+13
1.02059e+13
1.02091e+13
1.02124e+13
1.02157e+13
1.0219e+13
1.02223e+13
1.02256e+13
1.02288e+13
1.0232e+13
1.02351e+13
1.02381e+13
1.0241e+13
1.02438e+13
1.02464e+13
1.02488e+13
1.02511e+13
1.02531e+13
1.02549e+13
1.02564e+13
1.02577e+13
1.02588e+13
1.01055e+13
1.01056e+13
1.01056e+13
1.01057e+13
1.01058e+13
1.01059e+13
1.0106e+13
1.01061e+13
1.01063e+13
1.01065e+13
1.01067e+13
1.01069e+13
1.01072e+13
1.01075e+13
1.01078e+13
1.01081e+13
1.01085e+13
1.01088e+13
1.01092e+13
1.01096e+13
1.01101e+13
1.01106e+13
1.0111e+13
1.01116e+13
1.01121e+13
1.01127e+13
1.01133e+13
1.01139e+13
1.01145e+13
1.01152e+13
1.01159e+13
1.01166e+13
1.01174e+13
1.01182e+13
1.0119e+13
1.01199e+13
1.01207e+13
1.01217e+13
1.01226e+13
1.01236e+13
1.01246e+13
1.01257e+13
1.01268e+13
1.01279e+13
1.01291e+13
1.01303e+13
1.01315e+13
1.01328e+13
1.01341e+13
1.01355e+13
1.01369e+13
1.01384e+13
1.01399e+13
1.01415e+13
1.01431e+13
1.01448e+13
1.01465e+13
1.01482e+13
1.01501e+13
1.01519e+13
1.01539e+13
1.01559e+13
1.01579e+13
1.01601e+13
1.01622e+13
1.01645e+13
1.01668e+13
1.01692e+13
1.01716e+13
1.01741e+13
1.01767e+13
1.01793e+13
1.0182e+13
1.01847e+13
1.01876e+13
1.01904e+13
1.01934e+13
1.01963e+13
1.01993e+13
1.02024e+13
1.02055e+13
1.02086e+13
1.02117e+13
1.02148e+13
1.02179e+13
1.0221e+13
1.0224e+13
1.0227e+13
1.02298e+13
1.02326e+13
1.02353e+13
1.02379e+13
1.02404e+13
1.02426e+13
1.02447e+13
1.02466e+13
1.02483e+13
1.02498e+13
1.0251e+13
1.0252e+13
1.0105e+13
1.0105e+13
1.0105e+13
1.01051e+13
1.01052e+13
1.01053e+13
1.01054e+13
1.01056e+13
1.01057e+13
1.01059e+13
1.01061e+13
1.01064e+13
1.01066e+13
1.01069e+13
1.01072e+13
1.01075e+13
1.01079e+13
1.01082e+13
1.01086e+13
1.0109e+13
1.01095e+13
1.01099e+13
1.01104e+13
1.01109e+13
1.01115e+13
1.0112e+13
1.01126e+13
1.01132e+13
1.01139e+13
1.01145e+13
1.01152e+13
1.01159e+13
1.01167e+13
1.01175e+13
1.01183e+13
1.01191e+13
1.012e+13
1.01209e+13
1.01218e+13
1.01228e+13
1.01238e+13
1.01248e+13
1.01259e+13
1.0127e+13
1.01282e+13
1.01294e+13
1.01306e+13
1.01319e+13
1.01332e+13
1.01345e+13
1.01359e+13
1.01373e+13
1.01388e+13
1.01403e+13
1.01419e+13
1.01435e+13
1.01452e+13
1.01469e+13
1.01487e+13
1.01506e+13
1.01524e+13
1.01544e+13
1.01564e+13
1.01584e+13
1.01605e+13
1.01627e+13
1.01649e+13
1.01672e+13
1.01696e+13
1.0172e+13
1.01745e+13
1.0177e+13
1.01796e+13
1.01822e+13
1.01849e+13
1.01876e+13
1.01904e+13
1.01932e+13
1.01961e+13
1.0199e+13
1.02019e+13
1.02048e+13
1.02078e+13
1.02107e+13
1.02136e+13
1.02165e+13
1.02193e+13
1.02221e+13
1.02248e+13
1.02274e+13
1.02299e+13
1.02323e+13
1.02346e+13
1.02367e+13
1.02387e+13
1.02405e+13
1.0242e+13
1.02434e+13
1.02446e+13
1.02455e+13
1.01044e+13
1.01044e+13
1.01045e+13
1.01045e+13
1.01046e+13
1.01047e+13
1.01048e+13
1.0105e+13
1.01051e+13
1.01053e+13
1.01055e+13
1.01058e+13
1.0106e+13
1.01063e+13
1.01066e+13
1.01069e+13
1.01073e+13
1.01076e+13
1.0108e+13
1.01084e+13
1.01088e+13
1.01093e+13
1.01098e+13
1.01103e+13
1.01108e+13
1.01114e+13
1.01119e+13
1.01125e+13
1.01132e+13
1.01138e+13
1.01145e+13
1.01152e+13
1.0116e+13
1.01167e+13
1.01175e+13
1.01184e+13
1.01192e+13
1.01201e+13
1.0121e+13
1.0122e+13
1.0123e+13
1.0124e+13
1.01251e+13
1.01261e+13
1.01273e+13
1.01284e+13
1.01296e+13
1.01309e+13
1.01322e+13
1.01335e+13
1.01348e+13
1.01362e+13
1.01377e+13
1.01392e+13
1.01407e+13
1.01423e+13
1.01439e+13
1.01456e+13
1.01474e+13
1.01491e+13
1.0151e+13
1.01529e+13
1.01548e+13