/*--------------------------------*- C++ -*----------------------------------*\
  =========                 |
  \\      /  F ield         | OpenFOAM: The Open Source CFD Toolbox
   \\    /   O peration     | Website:  https://openfoam.org
    \\  /    A nd           | Version:  7
     \\/     M anipulation  |
\*---------------------------------------------------------------------------*/
FoamFile
{
    version     2.0;
    format      ascii;
    class       volVectorField;
    location    "0.5";
    object      qAir;
}
// * * * * * * * * * * * * * * * * * * * * * * * * * * * * * * * * * * * * * //

dimensions      [0 -1 0 1 0 0 0];

internalField   nonuniform List<vector> 
1600
(
(45.4562 4.54655e-07 -0)
(45.4562 1.25198e-06 -0)
(45.4562 1.95768e-06 -0)
(45.4562 2.69674e-06 -0)
(45.4561 3.53834e-06 -0)
(45.4561 4.51158e-06 -0)
(45.4561 5.6264e-06 -0)
(45.4561 6.88086e-06 -0)
(45.4561 8.26291e-06 -0)
(45.456 9.75041e-06 -0)
(45.456 1.13105e-05 -0)
(45.4559 1.28984e-05 -0)
(45.4558 1.44561e-05 -0)
(45.4558 1.59105e-05 -0)
(45.4557 1.71719e-05 -0)
(45.4556 1.81329e-05 -0)
(45.4555 1.86723e-05 -0)
(45.4554 1.86684e-05 -0)
(45.4553 1.80206e-05 -0)
(45.4552 1.66757e-05 -0)
(45.4551 1.46466e-05 -0)
(45.455 1.20236e-05 -0)
(45.4549 8.98694e-06 -0)
(45.4548 5.82419e-06 -0)
(45.4548 2.93337e-06 -0)
(45.4547 7.88775e-07 -0)
(45.4547 -1.08164e-07 -0)
(45.4547 7.76348e-07 -0)
(45.4547 4.0928e-06 -0)
(45.4547 1.06112e-05 -0)
(45.4547 2.06734e-05 -0)
(45.4546 3.25616e-05 -0)
(45.4545 4.07813e-05 -0)
(45.4543 3.94397e-05 -0)
(45.4541 3.71488e-05 -0)
(45.4537 7.28392e-05 -0)
(45.4532 0.000185912 -0)
(45.4527 0.00030906 -0)
(45.4523 0.000243029 -0)
(45.4511 6.28448e-05 -0)
(45.4562 6.69729e-07 -0)
(45.4562 1.87098e-06 -0)
(45.4562 2.96009e-06 -0)
(45.4562 4.10244e-06 -0)
(45.4561 5.39674e-06 -0)
(45.4561 6.88748e-06 -0)
(45.4561 8.59035e-06 -0)
(45.4561 1.05021e-05 -0)
(45.4561 1.26036e-05 -0)
(45.456 1.48604e-05 -0)
(45.456 1.72213e-05 -0)
(45.4559 1.96174e-05 -0)
(45.4559 2.19582e-05 -0)
(45.4558 2.41299e-05 -0)
(45.4557 2.59931e-05 -0)
(45.4556 2.73827e-05 -0)
(45.4555 2.81128e-05 -0)
(45.4554 2.79935e-05 -0)
(45.4553 2.68651e-05 -0)
(45.4552 2.46464e-05 -0)
(45.4551 2.13755e-05 -0)
(45.455 1.72258e-05 -0)
(45.4549 1.25025e-05 -0)
(45.4548 7.64603e-06 -0)
(45.4548 3.24662e-06 -0)
(45.4547 2.18865e-08 -0)
(45.4547 -1.27824e-06 -0)
(45.4547 2.33253e-08 -0)
(45.4547 4.60075e-06 -0)
(45.4547 1.356e-05 -0)
(45.4547 2.89338e-05 -0)
(45.4546 5.23533e-05 -0)
(45.4545 7.88353e-05 -0)
(45.4543 8.84898e-05 -0)
(45.4541 5.57709e-05 -0)
(45.4539 -9.96248e-07 -0)
(45.4534 2.48495e-05 -0)
(45.4527 0.000201957 -0)
(45.4521 0.000259209 -0)
(45.4508 8.24663e-05 -0)
(45.4562 3.72188e-07 -0)
(45.4562 1.08521e-06 -0)
(45.4562 1.78069e-06 -0)
(45.4562 2.52115e-06 -0)
(45.4561 3.35443e-06 -0)
(45.4561 4.30758e-06 -0)
(45.4561 5.39169e-06 -0)
(45.4561 6.60517e-06 -0)
(45.4561 7.93554e-06 -0)
(45.456 9.36038e-06 -0)
(45.456 1.08473e-05 -0)
(45.4559 1.23522e-05 -0)
(45.4559 1.3817e-05 -0)
(45.4558 1.51658e-05 -0)
(45.4557 1.63048e-05 -0)
(45.4556 1.71243e-05 -0)
(45.4555 1.75045e-05 -0)
(45.4554 1.73233e-05 -0)
(45.4553 1.64732e-05 -0)
(45.4552 1.48938e-05 -0)
(45.4551 1.26147e-05 -0)
(45.455 9.77973e-06 -0)
(45.4549 6.62692e-06 -0)
(45.4548 3.4477e-06 -0)
(45.4548 5.87132e-07 -0)
(45.4547 -1.50258e-06 -0)
(45.4547 -2.27028e-06 -0)
(45.4547 -1.31386e-06 -0)
(45.4547 1.12546e-06 -0)
(45.4547 4.03792e-06 -0)
(45.4547 7.482e-06 -0)
(45.4546 1.72639e-05 -0)
(45.4545 4.68354e-05 -0)
(45.4543 0.000101605 -0)
(45.454 0.000143031 -0)
(45.4537 8.67457e-05 -0)
(45.4534 -7.61395e-05 -0)
(45.4529 -0.000138867 -0)
(45.4522 -7.42103e-06 -0)
(45.4508 3.10651e-05 -0)
(45.4562 2.80892e-07 -0)
(45.4562 8.4143e-07 -0)
(45.4562 1.41774e-06 -0)
(45.4562 2.04801e-06 -0)
(45.4561 2.7643e-06 -0)
(45.4561 3.58791e-06 -0)
(45.4561 4.5292e-06 -0)
(45.4561 5.5882e-06 -0)
(45.4561 6.75543e-06 -0)
(45.456 8.01243e-06 -0)
(45.456 9.33216e-06 -0)
(45.4559 1.06783e-05 -0)
(45.4559 1.2003e-05 -0)
(45.4558 1.3242e-05 -0)
(45.4557 1.43115e-05 -0)
(45.4556 1.51091e-05 -0)
(45.4555 1.55236e-05 -0)
(45.4554 1.54491e-05 -0)
(45.4553 1.47978e-05 -0)
(45.4552 1.35148e-05 -0)
(45.4551 1.16031e-05 -0)
(45.455 9.15775e-06 -0)
(45.4549 6.37255e-06 -0)
(45.4548 3.49715e-06 -0)
(45.4548 7.89537e-07 -0)
(45.4547 -1.42773e-06 -0)
(45.4547 -2.57725e-06 -0)
(45.4547 -1.72479e-06 -0)
(45.4547 1.84478e-06 -0)
(45.4547 6.70674e-06 -0)
(45.4547 7.01253e-06 -0)
(45.4546 -4.74386e-06 -0)
(45.4546 -2.31767e-05 -0)
(45.4544 -1.34608e-05 -0)
(45.4541 6.60213e-05 -0)
(45.4536 0.000177132 -0)
(45.4532 0.00016679 -0)
(45.4528 5.52033e-07 -0)
(45.4523 -3.17911e-05 -0)
(45.4508 5.358e-06 -0)
(45.4562 2.21803e-07 -0)
(45.4562 6.75962e-07 -0)
(45.4562 1.15948e-06 -0)
(45.4562 1.70248e-06 -0)
(45.4561 2.33029e-06 -0)
(45.4561 3.06089e-06 -0)
(45.4561 3.90392e-06 -0)
(45.4561 4.86046e-06 -0)
(45.4561 5.92337e-06 -0)
(45.456 7.07735e-06 -0)
(45.456 8.29889e-06 -0)
(45.4559 9.55594e-06 -0)
(45.4559 1.08069e-05 -0)
(45.4558 1.19977e-05 -0)
(45.4557 1.30562e-05 -0)
(45.4556 1.38882e-05 -0)
(45.4555 1.43827e-05 -0)
(45.4554 1.44304e-05 -0)
(45.4553 1.39485e-05 -0)
(45.4552 1.28965e-05 -0)
(45.4551 1.12812e-05 -0)
(45.455 9.16789e-06 -0)
(45.4549 6.70022e-06 -0)
(45.4548 4.08894e-06 -0)
(45.4548 1.53256e-06 -0)
(45.4547 -8.69957e-07 -0)
(45.4547 -3.0125e-06 -0)
(45.4547 -4.21644e-06 -0)
(45.4547 -2.2686e-06 -0)
(45.4547 6.48466e-06 -0)
(45.4547 2.26418e-05 -0)
(45.4546 3.43302e-05 -0)
(45.4545 1.57687e-05 -0)
(45.4544 -4.31109e-05 -0)
(45.4542 -8.7841e-05 -0)
(45.4538 -2.6371e-05 -0)
(45.4532 9.74583e-05 -0)
(45.4527 6.2042e-05 -0)
(45.4522 -5.99355e-07 -0)
(45.4509 -5.57601e-06 -0)
(45.4562 1.73703e-07 -0)
(45.4562 5.35085e-07 -0)
(45.4562 9.3074e-07 -0)
(45.4562 1.38786e-06 -0)
(45.4561 1.92861e-06 -0)
(45.4561 2.56903e-06 -0)
(45.4561 3.31801e-06 -0)
(45.4561 4.17711e-06 -0)
(45.4561 5.14088e-06 -0)
(45.456 6.19712e-06 -0)
(45.456 7.32637e-06 -0)
(45.4559 8.5007e-06 -0)
(45.4559 9.68247e-06 -0)
(45.4558 1.08233e-05 -0)
(45.4557 1.18617e-05 -0)
(45.4556 1.27185e-05 -0)
(45.4555 1.32935e-05 -0)
(45.4554 1.34753e-05 -0)
(45.4553 1.31691e-05 -0)
(45.4552 1.23278e-05 -0)
(45.4551 1.09633e-05 -0)
(45.455 9.13532e-06 -0)
(45.4549 6.95491e-06 -0)
(45.4548 4.61924e-06 -0)
(45.4548 2.40925e-06 -0)
(45.4547 5.18549e-07 -0)
(45.4547 -1.33824e-06 -0)
(45.4547 -4.18743e-06 -0)
(45.4547 -8.75465e-06 -0)
(45.4547 -1.19009e-05 -0)
(45.4547 -3.3165e-06 -0)
(45.4546 2.72926e-05 -0)
(45.4545 6.66442e-05 -0)
(45.4543 6.58532e-05 -0)
(45.4541 -4.43353e-06 -0)
(45.4538 -6.10691e-05 -0)
(45.4533 6.05231e-06 -0)
(45.4527 4.00778e-05 -0)
(45.4522 1.48631e-05 -0)
(45.4509 3.88028e-06 -0)
(45.4562 1.31031e-07 -0)
(45.4562 4.0772e-07 -0)
(45.4562 7.19748e-07 -0)
(45.4562 1.09293e-06 -0)
(45.4562 1.5478e-06 -0)
(45.4561 2.09932e-06 -0)
(45.4561 2.75606e-06 -0)
(45.4561 3.51981e-06 -0)
(45.4561 4.38595e-06 -0)
(45.456 5.34423e-06 -0)
(45.456 6.37911e-06 -0)
(45.4559 7.46837e-06 -0)
(45.4559 8.58002e-06 -0)
(45.4558 9.66956e-06 -0)
(45.4557 1.06797e-05 -0)
(45.4556 1.1541e-05 -0)
(45.4555 1.21706e-05 -0)
(45.4554 1.24716e-05 -0)
(45.4553 1.23476e-05 -0)
(45.4552 1.17344e-05 -0)
(45.4551 1.06278e-05 -0)
(45.455 9.07237e-06 -0)
(45.4549 7.12767e-06 -0)
(45.4548 4.89482e-06 -0)
(45.4548 2.66258e-06 -0)
(45.4547 1.05531e-06 -0)
(45.4547 7.82508e-07 -0)
(45.4547 1.45089e-06 -0)
(45.4547 -1.67265e-07 -0)
(45.4547 -9.1618e-06 -0)
(45.4547 -2.43132e-05 -0)
(45.4547 -2.79395e-05 -0)
(45.4545 2.8646e-06 -0)
(45.4543 5.22813e-05 -0)
(45.454 5.18474e-05 -0)
(45.4538 -1.19667e-05 -0)
(45.4533 -1.49126e-05 -0)
(45.4527 1.159e-05 -0)
(45.4522 1.02369e-05 -0)
(45.4508 6.19515e-06 -0)
(45.4562 9.19353e-08 -0)
(45.4562 2.90227e-07 -0)
(45.4562 5.23341e-07 -0)
(45.4562 8.16023e-07 -0)
(45.4562 1.1877e-06 -0)
(45.4561 1.65257e-06 -0)
(45.4561 2.2192e-06 -0)
(45.4561 2.88996e-06 -0)
(45.4561 3.661e-06 -0)
(45.456 4.52289e-06 -0)
(45.456 5.46189e-06 -0)
(45.4559 6.46034e-06 -0)
(45.4559 7.49419e-06 -0)
(45.4558 8.52741e-06 -0)
(45.4557 9.50745e-06 -0)
(45.4556 1.03666e-05 -0)
(45.4555 1.10281e-05 -0)
(45.4554 1.14111e-05 -0)
(45.4553 1.14349e-05 -0)
(45.4552 1.1036e-05 -0)
(45.4551 1.02001e-05 -0)
(45.455 8.97035e-06 -0)
(45.4549 7.388e-06 -0)
(45.4548 5.40902e-06 -0)
(45.4548 2.95706e-06 -0)
(45.4547 2.85953e-07 -0)
(45.4547 -1.42956e-06 -0)
(45.4547 -1.01942e-07 -0)
(45.4547 5.00573e-06 -0)
(45.4547 8.8764e-06 -0)
(45.4547 1.03831e-06 -0)
(45.4547 -1.99829e-05 -0)
(45.4546 -2.98082e-05 -0)
(45.4544 -1.01365e-06 -0)
(45.454 3.51184e-05 -0)
(45.4538 1.50922e-05 -0)
(45.4533 -4.55917e-06 -0)
(45.4527 1.36394e-06 -0)
(45.4522 3.34973e-06 -0)
(45.4508 3.04611e-06 -0)
(45.4562 5.58309e-08 -0)
(45.4562 1.81405e-07 -0)
(45.4562 3.40609e-07 -0)
(45.4562 5.57199e-07 -0)
(45.4562 8.4964e-07 -0)
(45.4561 1.23138e-06 -0)
(45.4561 1.7107e-06 -0)
(45.4561 2.29059e-06 -0)
(45.4561 2.96853e-06 -0)
(45.456 3.73648e-06 -0)
(45.456 4.58145e-06 -0)
(45.4559 5.48695e-06 -0)
(45.4559 6.43365e-06 -0)
(45.4558 7.39591e-06 -0)
(45.4557 8.33363e-06 -0)
(45.4556 9.18604e-06 -0)
(45.4555 9.876e-06 -0)
(45.4554 1.03233e-05 -0)
(45.4553 1.04558e-05 -0)
(45.4552 1.02164e-05 -0)
(45.4551 9.58423e-06 -0)
(45.455 8.6095e-06 -0)
(45.4549 7.4072e-06 -0)
(45.4548 6.04421e-06 -0)
(45.4548 4.35348e-06 -0)
(45.4547 1.88704e-06 -0)
(45.4547 -1.58661e-06 -0)
(45.4547 -4.78997e-06 -0)
(45.4547 -4.13822e-06 -0)
(45.4547 2.98814e-06 -0)
(45.4547 1.06108e-05 -0)
(45.4546 4.65825e-06 -0)
(45.4546 -1.50425e-05 -0)
(45.4544 -1.90437e-05 -0)
(45.4541 6.15736e-06 -0)
(45.4538 1.23562e-05 -0)
(45.4533 2.56881e-06 -0)
(45.4527 7.25148e-07 -0)
(45.4522 2.92768e-07 -0)
(45.4508 -1.35251e-06 -0)
(45.4562 2.26166e-08 -0)
(45.4562 8.11404e-08 -0)
(45.4562 1.71719e-07 -0)
(45.4562 3.17067e-07 -0)
(45.4562 5.34882e-07 -0)
(45.4561 8.37991e-07 -0)
(45.4561 1.23412e-06 -0)
(45.4561 1.72603e-06 -0)
(45.4561 2.3121e-06 -0)
(45.456 2.98642e-06 -0)
(45.456 3.73841e-06 -0)
(45.4559 4.55264e-06 -0)
(45.4559 5.41007e-06 -0)
(45.4558 6.28919e-06 -0)
(45.4557 7.16206e-06 -0)
(45.4556 7.98454e-06 -0)
(45.4555 8.68998e-06 -0)
(45.4554 9.1985e-06 -0)
(45.4553 9.43658e-06 -0)
(45.4552 9.34719e-06 -0)
(45.4551 8.88834e-06 -0)
(45.455 8.05262e-06 -0)
(45.4549 6.92245e-06 -0)
(45.4548 5.70368e-06 -0)
(45.4548 4.63073e-06 -0)
(45.4547 3.65558e-06 -0)
(45.4547 2.05079e-06 -0)
(45.4547 -1.25134e-06 -0)
(45.4547 -5.5064e-06 -0)
(45.4547 -6.12572e-06 -0)
(45.4547 7.88191e-07 -0)
(45.4546 7.98851e-06 -0)
(45.4545 1.49449e-06 -0)
(45.4544 -1.1386e-05 -0)
(45.4541 -5.43127e-06 -0)
(45.4538 3.20019e-06 -0)
(45.4533 2.18058e-06 -0)
(45.4527 1.04119e-06 -0)
(45.4522 1.54028e-07 -0)
(45.4508 -2.92882e-06 -0)
(45.4562 -7.63833e-09 -0)
(45.4562 -1.02904e-08 -0)
(45.4562 1.73639e-08 -0)
(45.4562 9.67493e-08 -0)
(45.4562 2.44706e-07 -0)
(45.4561 4.73694e-07 -0)
(45.4561 7.91221e-07 -0)
(45.4561 1.1996e-06 -0)
(45.4561 1.69667e-06 -0)
(45.456 2.27722e-06 -0)
(45.456 2.9336e-06 -0)
(45.4559 3.65445e-06 -0)
(45.4559 4.42298e-06 -0)
(45.4558 5.21743e-06 -0)
(45.4557 6.01258e-06 -0)
(45.4556 6.77614e-06 -0)
(45.4555 7.4593e-06 -0)
(45.4554 7.99444e-06 -0)
(45.4553 8.31386e-06 -0)
(45.4552 8.37383e-06 -0)
(45.4551 8.14862e-06 -0)
(45.455 7.59542e-06 -0)
(45.4549 6.65078e-06 -0)
(45.4548 5.31633e-06 -0)
(45.4548 3.81655e-06 -0)
(45.4547 2.66284e-06 -0)
(45.4547 2.22692e-06 -0)
(45.4547 1.72224e-06 -0)
(45.4547 -7.90257e-07 -0)
(45.4547 -5.09107e-06 -0)
(45.4547 -5.87876e-06 -0)
(45.4546 1.18087e-07 -0)
(45.4545 3.65134e-06 -0)
(45.4544 -3.03999e-06 -0)
(45.4541 -5.24471e-06 -0)
(45.4538 -1.46451e-06 -0)
(45.4533 -1.99089e-07 -0)
(45.4527 2.80618e-07 -0)
(45.4522 5.63505e-07 -0)
(45.4508 -1.5773e-06 -0)
(45.4562 -3.48361e-08 -0)
(45.4562 -9.25588e-08 -0)
(45.4562 -1.21771e-07 -0)
(45.4562 -1.02553e-07 -0)
(45.4562 -1.92575e-08 -0)
(45.4561 1.39941e-07 -0)
(45.4561 3.82652e-07 -0)
(45.4561 7.11516e-07 -0)
(45.4561 1.12399e-06 -0)
(45.456 1.6137e-06 -0)
(45.456 2.17293e-06 -0)
(45.4559 2.79386e-06 -0)
(45.4559 3.46618e-06 -0)
(45.4558 4.17299e-06 -0)
(45.4557 4.88973e-06 -0)
(45.4556 5.58582e-06 -0)
(45.4555 6.22119e-06 -0)
(45.4554 6.73881e-06 -0)
(45.4553 7.07254e-06 -0)
(45.4552 7.18293e-06 -0)
(45.4551 7.08617e-06 -0)
(45.455 6.81916e-06 -0)
(45.4549 6.34643e-06 -0)
(45.4548 5.50422e-06 -0)
(45.4548 4.10881e-06 -0)
(45.4547 2.30724e-06 -0)
(45.4547 9.04775e-07 -0)
(45.4547 7.49365e-07 -0)
(45.4547 9.38591e-07 -0)
(45.4547 -1.07657e-06 -0)
(45.4547 -4.67557e-06 -0)
(45.4546 -4.35242e-06 -0)
(45.4545 -2.38824e-07 -0)
(45.4544 -9.25583e-07 -0)
(45.4541 -3.16833e-06 -0)
(45.4538 -2.41656e-06 -0)
(45.4533 -1.62198e-06 -0)
(45.4527 -8.73154e-07 -0)
(45.4522 1.98856e-07 -0)
(45.4508 1.02998e-07 -0)
(45.4562 -5.88738e-08 -0)
(45.4562 -1.6542e-07 -0)
(45.4562 -2.45377e-07 -0)
(45.4562 -2.80313e-07 -0)
(45.4562 -2.55918e-07 -0)
(45.4561 -1.61556e-07 -0)
(45.4561 9.857e-09 -0)
(45.4561 2.61521e-07 -0)
(45.4561 5.91958e-07 -0)
(45.456 9.94683e-07 -0)
(45.456 1.45996e-06 -0)
(45.4559 1.9785e-06 -0)
(45.4559 2.54357e-06 -0)
(45.4558 3.14731e-06 -0)
(45.4557 3.77423e-06 -0)
(45.4556 4.39862e-06 -0)
(45.4555 4.98543e-06 -0)
(45.4554 5.48515e-06 -0)
(45.4553 5.82758e-06 -0)
(45.4552 5.94411e-06 -0)
(45.4551 5.82676e-06 -0)
(45.455 5.56279e-06 -0)
(45.4549 5.26778e-06 -0)
(45.4548 4.93155e-06 -0)
(45.4548 4.2981e-06 -0)
(45.4547 2.99146e-06 -0)
(45.4547 1.09336e-06 -0)
(45.4547 -3.17508e-07 -0)
(45.4547 -2.16728e-07 -0)
(45.4547 4.72955e-08 -0)
(45.4547 -1.89461e-06 -0)
(45.4547 -4.00587e-06 -0)
(45.4545 -2.7006e-06 -0)
(45.4544 -1.69521e-06 -0)
(45.4541 -2.38542e-06 -0)
(45.4538 -2.32656e-06 -0)
(45.4533 -2.03231e-06 -0)
(45.4527 -1.69905e-06 -0)
(45.4522 -7.99096e-07 -0)
(45.4508 2.87068e-07 -0)
(45.4562 -7.96501e-08 -0)
(45.4562 -2.28617e-07 -0)
(45.4562 -3.53213e-07 -0)
(45.4562 -4.36568e-07 -0)
(45.4562 -4.65551e-07 -0)
(45.4561 -4.30649e-07 -0)
(45.4561 -3.26031e-07 -0)
(45.4561 -1.4913e-07 -0)
(45.4561 9.95186e-08 -0)
(45.456 4.15488e-07 -0)
(45.456 7.89612e-07 -0)
(45.4559 1.20982e-06 -0)
(45.4559 1.66597e-06 -0)
(45.4558 2.15265e-06 -0)
(45.4557 2.66449e-06 -0)
(45.4556 3.18803e-06 -0)
(45.4555 3.69966e-06 -0)
(45.4554 4.16572e-06 -0)
(45.4553 4.53234e-06 -0)
(45.4552 4.71726e-06 -0)
(45.4551 4.64677e-06 -0)
(45.455 4.33701e-06 -0)
(45.4549 3.92962e-06 -0)
(45.4548 3.59915e-06 -0)
(45.4548 3.35776e-06 -0)
(45.4547 2.88444e-06 -0)
(45.4547 1.69322e-06 -0)
(45.4547 -6.41496e-08 -0)
(45.4547 -1.12152e-06 -0)
(45.4547 -8.36071e-07 -0)
(45.4547 -1.02094e-06 -0)
(45.4546 -2.61035e-06 -0)
(45.4545 -3.01065e-06 -0)
(45.4544 -2.44481e-06 -0)
(45.4541 -2.42867e-06 -0)
(45.4538 -2.30998e-06 -0)
(45.4533 -2.0692e-06 -0)
(45.4527 -2.01922e-06 -0)
(45.4522 -1.70262e-06 -0)
(45.4508 -8.49766e-07 -0)
(45.4562 -9.71898e-08 -0)
(45.4562 -2.82105e-07 -0)
(45.4562 -4.45088e-07 -0)
(45.4562 -5.71298e-07 -0)
(45.4562 -6.48848e-07 -0)
(45.4561 -6.68955e-07 -0)
(45.4561 -6.2659e-07 -0)
(45.4561 -5.20584e-07 -0)
(45.4561 -3.52522e-07 -0)
(45.456 -1.25718e-07 -0)
(45.456 1.53959e-07 -0)
(45.4559 4.76467e-07 -0)
(45.4559 8.28994e-07 -0)
(45.4558 1.20142e-06 -0)
(45.4557 1.58907e-06 -0)
(45.4556 1.98651e-06 -0)
(45.4555 2.38022e-06 -0)
(45.4554 2.75084e-06 -0)
(45.4553 3.07425e-06 -0)
(45.4552 3.30248e-06 -0)
(45.4551 3.34979e-06 -0)
(45.455 3.14181e-06 -0)
(45.4549 2.7102e-06 -0)
(45.4548 2.22161e-06 -0)
(45.4548 1.87307e-06 -0)
(45.4547 1.67836e-06 -0)
(45.4547 1.27063e-06 -0)
(45.4547 1.79847e-07 -0)
(45.4547 -1.21741e-06 -0)
(45.4547 -1.73964e-06 -0)
(45.4547 -1.56428e-06 -0)
(45.4546 -2.14014e-06 -0)
(45.4545 -2.75723e-06 -0)
(45.4544 -2.71063e-06 -0)
(45.4541 -2.61824e-06 -0)
(45.4538 -2.45672e-06 -0)
(45.4533 -2.12487e-06 -0)
(45.4527 -2.0351e-06 -0)
(45.4522 -2.11077e-06 -0)
(45.4508 -2.24562e-06 -0)
(45.4562 -1.11601e-07 -0)
(45.4562 -3.26267e-07 -0)
(45.4562 -5.21499e-07 -0)
(45.4562 -6.8481e-07 -0)
(45.4562 -8.06235e-07 -0)
(45.4561 -8.77957e-07 -0)
(45.4561 -8.95058e-07 -0)
(45.4561 -8.56661e-07 -0)
(45.4561 -7.65947e-07 -0)
(45.456 -6.2815e-07 -0)
(45.456 -4.48368e-07 -0)
(45.4559 -2.32264e-07 -0)
(45.4559 1.14433e-08 -0)
(45.4558 2.71838e-07 -0)
(45.4557 5.41069e-07 -0)
(45.4556 8.14955e-07 -0)
(45.4555 1.08423e-06 -0)
(45.4554 1.33061e-06 -0)
(45.4553 1.53914e-06 -0)
(45.4552 1.70184e-06 -0)
(45.4551 1.78651e-06 -0)
(45.455 1.71452e-06 -0)
(45.4549 1.41735e-06 -0)
(45.4548 9.33222e-07 -0)
(45.4548 4.2864e-07 -0)
(45.4547 9.79128e-08 -0)
(45.4547 -6.9333e-08 -0)
(45.4547 -4.73667e-07 -0)
(45.4547 -1.42201e-06 -0)
(45.4547 -2.29391e-06 -0)
(45.4547 -2.42994e-06 -0)
(45.4546 -2.54525e-06 -0)
(45.4545 -2.86026e-06 -0)
(45.4544 -2.9224e-06 -0)
(45.4541 -2.8365e-06 -0)
(45.4538 -2.68085e-06 -0)
(45.4533 -2.30634e-06 -0)
(45.4527 -2.02235e-06 -0)
(45.4522 -2.11162e-06 -0)
(45.4508 -3.10606e-06 -0)
(45.4562 -1.23036e-07 -0)
(45.4562 -3.617e-07 -0)
(45.4562 -5.83606e-07 -0)
(45.4562 -7.78607e-07 -0)
(45.4562 -9.39005e-07 -0)
(45.4561 -1.05889e-06 -0)
(45.4561 -1.13402e-06 -0)
(45.4561 -1.16273e-06 -0)
(45.4561 -1.14763e-06 -0)
(45.456 -1.09566e-06 -0)
(45.456 -1.01507e-06 -0)
(45.4559 -9.12053e-07 -0)
(45.4559 -7.90919e-07 -0)
(45.4558 -6.57224e-07 -0)
(45.4557 -5.16744e-07 -0)
(45.4556 -3.71198e-07 -0)
(45.4555 -2.22743e-07 -0)
(45.4554 -8.75691e-08 -0)
(45.4553 6.77858e-09 -0)
(45.4552 4.90736e-08 -0)
(45.4551 5.13367e-08 -0)
(45.455 2.85993e-09 -0)
(45.4549 -1.6122e-07 -0)
(45.4548 -5.01917e-07 -0)
(45.4548 -9.84189e-07 -0)
(45.4547 -1.44959e-06 -0)
(45.4547 -1.71557e-06 -0)
(45.4547 -1.85366e-06 -0)
(45.4547 -2.25807e-06 -0)
(45.4547 -2.9382e-06 -0)
(45.4547 -3.28622e-06 -0)
(45.4546 -3.34095e-06 -0)
(45.4545 -3.40758e-06 -0)
(45.4544 -3.36829e-06 -0)
(45.4541 -3.20095e-06 -0)
(45.4538 -2.99119e-06 -0)
(45.4533 -2.60471e-06 -0)
(45.4527 -2.14338e-06 -0)
(45.4522 -1.99081e-06 -0)
(45.4508 -3.23817e-06 -0)
(45.4562 -1.31713e-07 -0)
(45.4562 -3.89011e-07 -0)
(45.4562 -6.32692e-07 -0)
(45.4562 -8.54916e-07 -0)
(45.4562 -1.05e-06 -0)
(45.4561 -1.21429e-06 -0)
(45.4561 -1.34557e-06 -0)
(45.4561 -1.44258e-06 -0)
(45.4561 -1.506e-06 -0)
(45.456 -1.54067e-06 -0)
(45.456 -1.55611e-06 -0)
(45.4559 -1.56272e-06 -0)
(45.4559 -1.56708e-06 -0)
(45.4558 -1.57212e-06 -0)
(45.4557 -1.57961e-06 -0)
(45.4556 -1.58751e-06 -0)
(45.4555 -1.58691e-06 -0)
(45.4554 -1.57529e-06 -0)
(45.4553 -1.57676e-06 -0)
(45.4552 -1.62969e-06 -0)
(45.4551 -1.74049e-06 -0)
(45.455 -1.87612e-06 -0)
(45.4549 -2.02604e-06 -0)
(45.4548 -2.24214e-06 -0)
(45.4548 -2.58341e-06 -0)
(45.4547 -3.01981e-06 -0)
(45.4547 -3.38791e-06 -0)
(45.4547 -3.5399e-06 -0)
(45.4547 -3.64603e-06 -0)
(45.4547 -3.9689e-06 -0)
(45.4547 -4.25409e-06 -0)
(45.4546 -4.30176e-06 -0)
(45.4545 -4.23677e-06 -0)
(45.4544 -4.07157e-06 -0)
(45.4541 -3.78074e-06 -0)
(45.4538 -3.44486e-06 -0)
(45.4533 -3.00637e-06 -0)
(45.4527 -2.42898e-06 -0)
(45.4522 -1.96039e-06 -0)
(45.4508 -2.83225e-06 -0)
(45.4562 -1.37968e-07 -0)
(45.4562 -4.091e-07 -0)
(45.4562 -6.70122e-07 -0)
(45.4562 -9.15946e-07 -0)
(45.4562 -1.14278e-06 -0)
(45.4561 -1.34857e-06 -0)
(45.4561 -1.53337e-06 -0)
(45.4561 -1.69834e-06 -0)
(45.4561 -1.84447e-06 -0)
(45.456 -1.97344e-06 -0)
(45.456 -2.09068e-06 -0)
(45.4559 -2.20637e-06 -0)
(45.4559 -2.33118e-06 -0)
(45.4558 -2.47126e-06 -0)
(45.4557 -2.6286e-06 -0)
(45.4556 -2.80188e-06 -0)
(45.4555 -2.97981e-06 -0)
(45.4554 -3.13979e-06 -0)
(45.4553 -3.27267e-06 -0)
(45.4552 -3.40985e-06 -0)
(45.4551 -3.59733e-06 -0)
(45.455 -3.83279e-06 -0)
(45.4549 -4.06369e-06 -0)
(45.4548 -4.26519e-06 -0)
(45.4548 -4.48594e-06 -0)
(45.4547 -4.78817e-06 -0)
(45.4547 -5.12743e-06 -0)
(45.4547 -5.32869e-06 -0)
(45.4547 -5.34386e-06 -0)
(45.4547 -5.38864e-06 -0)
(45.4547 -5.46641e-06 -0)
(45.4546 -5.41767e-06 -0)
(45.4545 -5.24075e-06 -0)
(45.4544 -4.95793e-06 -0)
(45.4541 -4.54863e-06 -0)
(45.4538 -4.0646e-06 -0)
(45.4533 -3.51436e-06 -0)
(45.4527 -2.84615e-06 -0)
(45.4522 -2.09011e-06 -0)
(45.4508 -2.18062e-06 -0)
(45.4562 -1.42228e-07 -0)
(45.4562 -4.2326e-07 -0)
(45.4562 -6.97799e-07 -0)
(45.4562 -9.64087e-07 -0)
(45.4562 -1.22077e-06 -0)
(45.4561 -1.46713e-06 -0)
(45.4561 -1.7042e-06 -0)
(45.4561 -1.93527e-06 -0)
(45.4561 -2.16436e-06 -0)
(45.456 -2.39387e-06 -0)
(45.456 -2.62513e-06 -0)
(45.4559 -2.86224e-06 -0)
(45.4559 -3.11358e-06 -0)
(45.4558 -3.38738e-06 -0)
(45.4557 -3.68765e-06 -0)
(45.4556 -4.01576e-06 -0)
(45.4555 -4.36816e-06 -0)
(45.4554 -4.72386e-06 -0)
(45.4553 -5.04602e-06 -0)
(45.4552 -5.31997e-06 -0)
(45.4551 -5.58283e-06 -0)
(45.455 -5.88055e-06 -0)
(45.4549 -6.19602e-06 -0)
(45.4548 -6.46218e-06 -0)
(45.4548 -6.65461e-06 -0)
(45.4547 -6.83239e-06 -0)
(45.4547 -7.04799e-06 -0)
(45.4547 -7.21406e-06 -0)
(45.4547 -7.19732e-06 -0)
(45.4547 -7.07531e-06 -0)
(45.4547 -6.9333e-06 -0)
(45.4546 -6.71373e-06 -0)
(45.4545 -6.38638e-06 -0)
(45.4544 -5.96394e-06 -0)
(45.4541 -5.43417e-06 -0)
(45.4538 -4.81358e-06 -0)
(45.4533 -4.12176e-06 -0)
(45.4527 -3.354e-06 -0)
(45.4522 -2.36873e-06 -0)
(45.4508 -1.55171e-06 -0)
(45.4562 -1.44951e-07 -0)
(45.4562 -4.3295e-07 -0)
(45.4562 -7.18183e-07 -0)
(45.4562 -1.00233e-06 -0)
(45.4562 -1.28727e-06 -0)
(45.4561 -1.57453e-06 -0)
(45.4561 -1.86566e-06 -0)
(45.4561 -2.16389e-06 -0)
(45.4561 -2.47494e-06 -0)
(45.456 -2.8048e-06 -0)
(45.456 -3.15619e-06 -0)
(45.4559 -3.52881e-06 -0)
(45.4559 -3.92373e-06 -0)
(45.4558 -4.34492e-06 -0)
(45.4557 -4.79513e-06 -0)
(45.4556 -5.27421e-06 -0)
(45.4555 -5.78247e-06 -0)
(45.4554 -6.31372e-06 -0)
(45.4553 -6.83677e-06 -0)
(45.4552 -7.30326e-06 -0)
(45.4551 -7.6974e-06 -0)
(45.455 -8.05954e-06 -0)
(45.4549 -8.42488e-06 -0)
(45.4548 -8.75644e-06 -0)
(45.4548 -8.98414e-06 -0)
(45.4547 -9.10438e-06 -0)
(45.4547 -9.18637e-06 -0)
(45.4547 -9.2375e-06 -0)
(45.4547 -9.15129e-06 -0)
(45.4547 -8.90968e-06 -0)
(45.4547 -8.578e-06 -0)
(45.4546 -8.16156e-06 -0)
(45.4545 -7.64613e-06 -0)
(45.4544 -7.04564e-06 -0)
(45.4541 -6.36738e-06 -0)
(45.4538 -5.61585e-06 -0)
(45.4533 -4.78625e-06 -0)
(45.4527 -3.9117e-06 -0)
(45.4522 -2.76667e-06 -0)
(45.4508 -1.17037e-06 -0)
(45.4562 -1.46613e-07 -0)
(45.4562 -4.39659e-07 -0)
(45.4562 -7.34007e-07 -0)
(45.4562 -1.0345e-06 -0)
(45.4562 -1.34633e-06 -0)
(45.4561 -1.67438e-06 -0)
(45.4561 -2.02234e-06 -0)
(45.4561 -2.39299e-06 -0)
(45.4561 -2.79044e-06 -0)
(45.456 -3.22142e-06 -0)
(45.456 -3.69246e-06 -0)
(45.4559 -4.20521e-06 -0)
(45.4559 -4.75641e-06 -0)
(45.4558 -5.34252e-06 -0)
(45.4557 -5.9608e-06 -0)
(45.4556 -6.60601e-06 -0)
(45.4555 -7.27237e-06 -0)
(45.4554 -7.95797e-06 -0)
(45.4553 -8.65155e-06 -0)
(45.4552 -9.31117e-06 -0)
(45.4551 -9.88262e-06 -0)
(45.455 -1.03553e-05 -0)
(45.4549 -1.07676e-05 -0)
(45.4548 -1.11327e-05 -0)
(45.4547 -1.13959e-05 -0)
(45.4547 -1.15045e-05 -0)
(45.4547 -1.14873e-05 -0)
(45.4547 -1.13932e-05 -0)
(45.4547 -1.11802e-05 -0)
(45.4547 -1.08056e-05 -0)
(45.4547 -1.02967e-05 -0)
(45.4546 -9.67839e-06 -0)
(45.4545 -8.95583e-06 -0)
(45.4544 -8.14846e-06 -0)
(45.4541 -7.28495e-06 -0)
(45.4538 -6.3862e-06 -0)
(45.4533 -5.43102e-06 -0)
(45.4527 -4.46251e-06 -0)
(45.4522 -3.24747e-06 -0)
(45.4508 -1.20355e-06 -0)
(45.4562 -1.47731e-07 -0)
(45.4562 -4.44889e-07 -0)
(45.4562 -7.4793e-07 -0)
(45.4562 -1.06492e-06 -0)
(45.4562 -1.40367e-06 -0)
(45.4561 -1.77222e-06 -0)
(45.4561 -2.17797e-06 -0)
(45.4561 -2.6258e-06 -0)
(45.4561 -3.11834e-06 -0)
(45.456 -3.65886e-06 -0)
(45.456 -4.25325e-06 -0)
(45.4559 -4.90654e-06 -0)
(45.4559 -5.61743e-06 -0)
(45.4558 -6.37814e-06 -0)
(45.4557 -7.17895e-06 -0)
(45.4556 -8.00848e-06 -0)
(45.4555 -8.85221e-06 -0)
(45.4554 -9.69842e-06 -0)
(45.4553 -1.05411e-05 -0)
(45.4552 -1.136e-05 -0)
(45.4551 -1.21029e-05 -0)
(45.455 -1.27182e-05 -0)
(45.4549 -1.32044e-05 -0)
(45.4548 -1.35889e-05 -0)
(45.4547 -1.38568e-05 -0)
(45.4547 -1.39513e-05 -0)
(45.4547 -1.38577e-05 -0)
(45.4547 -1.36176e-05 -0)
(45.4547 -1.32368e-05 -0)
(45.4547 -1.26903e-05 -0)
(45.4547 -1.19878e-05 -0)
(45.4546 -1.11569e-05 -0)
(45.4546 -1.02163e-05 -0)
(45.4544 -9.1899e-06 -0)
(45.4541 -8.11808e-06 -0)
(45.4538 -7.04724e-06 -0)
(45.4533 -5.96768e-06 -0)
(45.4527 -4.92809e-06 -0)
(45.4522 -3.7483e-06 -0)
(45.4509 -1.71496e-06 -0)
(45.4562 -1.48878e-07 -0)
(45.4562 -4.50193e-07 -0)
(45.4562 -7.62304e-07 -0)
(45.4562 -1.09716e-06 -0)
(45.4561 -1.46508e-06 -0)
(45.4561 -1.8761e-06 -0)
(45.4561 -2.34043e-06 -0)
(45.4561 -2.86695e-06 -0)
(45.4561 -3.46052e-06 -0)
(45.456 -4.12187e-06 -0)
(45.456 -4.8515e-06 -0)
(45.4559 -5.65212e-06 -0)
(45.4559 -6.52484e-06 -0)
(45.4558 -7.46319e-06 -0)
(45.4557 -8.45316e-06 -0)
(45.4556 -9.477e-06 -0)
(45.4555 -1.05133e-05 -0)
(45.4554 -1.15384e-05 -0)
(45.4553 -1.25354e-05 -0)
(45.4552 -1.34911e-05 -0)
(45.4551 -1.43723e-05 -0)
(45.455 -1.51206e-05 -0)
(45.4549 -1.56955e-05 -0)
(45.4548 -1.61018e-05 -0)
(45.4547 -1.63461e-05 -0)
(45.4547 -1.6394e-05 -0)
(45.4547 -1.62125e-05 -0)
(45.4547 -1.58203e-05 -0)
(45.4547 -1.5243e-05 -0)
(45.4547 -1.4483e-05 -0)
(45.4547 -1.35538e-05 -0)
(45.4547 -1.24873e-05 -0)
(45.4546 -1.1315e-05 -0)
(45.4544 -1.00671e-05 -0)
(45.4541 -8.78613e-06 -0)
(45.4538 -7.533e-06 -0)
(45.4533 -6.32312e-06 -0)
(45.4527 -5.22578e-06 -0)
(45.4522 -4.16678e-06 -0)
(45.4509 -2.60192e-06 -0)
(45.4562 -1.50653e-07 -0)
(45.4562 -4.5738e-07 -0)
(45.4562 -7.79766e-07 -0)
(45.4562 -1.13418e-06 -0)
(45.4561 -1.53452e-06 -0)
(45.4561 -1.99269e-06 -0)
(45.4561 -2.51985e-06 -0)
(45.4561 -3.12715e-06 -0)
(45.4561 -3.82351e-06 -0)
(45.456 -4.61197e-06 -0)
(45.456 -5.48945e-06 -0)
(45.4559 -6.45139e-06 -0)
(45.4559 -7.49487e-06 -0)
(45.4558 -8.61446e-06 -0)
(45.4557 -9.79634e-06 -0)
(45.4556 -1.10183e-05 -0)
(45.4555 -1.22528e-05 -0)
(45.4554 -1.34676e-05 -0)
(45.4553 -1.46317e-05 -0)
(45.4552 -1.57227e-05 -0)
(45.4551 -1.67164e-05 -0)
(45.455 -1.75657e-05 -0)
(45.4549 -1.82139e-05 -0)
(45.4548 -1.86355e-05 -0)
(45.4547 -1.88325e-05 -0)
(45.4547 -1.87909e-05 -0)
(45.4547 -1.84823e-05 -0)
(45.4547 -1.79101e-05 -0)
(45.4547 -1.71038e-05 -0)
(45.4547 -1.6089e-05 -0)
(45.4547 -1.48949e-05 -0)
(45.4547 -1.35645e-05 -0)
(45.4546 -1.21445e-05 -0)
(45.4544 -1.06768e-05 -0)
(45.4541 -9.20495e-06 -0)
(45.4538 -7.78858e-06 -0)
(45.4533 -6.45642e-06 -0)
(45.4527 -5.3003e-06 -0)
(45.4522 -4.37971e-06 -0)
(45.4509 -3.55797e-06 -0)
(45.4562 -1.53616e-07 -0)
(45.4562 -4.68315e-07 -0)
(45.4562 -8.0353e-07 -0)
(45.4562 -1.17983e-06 -0)
(45.4561 -1.61544e-06 -0)
(45.4561 -2.12563e-06 -0)
(45.4561 -2.72275e-06 -0)
(45.4561 -3.41755e-06 -0)
(45.4561 -4.22023e-06 -0)
(45.456 -5.13774e-06 -0)
(45.456 -6.16907e-06 -0)
(45.4559 -7.305e-06 -0)
(45.4559 -8.53366e-06 -0)
(45.4558 -9.84396e-06 -0)
(45.4557 -1.12215e-05 -0)
(45.4556 -1.26432e-05 -0)
(45.4555 -1.40766e-05 -0)
(45.4554 -1.54827e-05 -0)
(45.4553 -1.6819e-05 -0)
(45.4552 -1.80487e-05 -0)
(45.4551 -1.91422e-05 -0)
(45.455 -2.00604e-05 -0)
(45.4549 -2.07473e-05 -0)
(45.4548 -2.11568e-05 -0)
(45.4547 -2.12747e-05 -0)
(45.4547 -2.1095e-05 -0)
(45.4547 -2.06029e-05 -0)
(45.4547 -1.98005e-05 -0)
(45.4547 -1.87201e-05 -0)
(45.4547 -1.74065e-05 -0)
(45.4547 -1.59101e-05 -0)
(45.4547 -1.42909e-05 -0)
(45.4546 -1.26134e-05 -0)
(45.4544 -1.09349e-05 -0)
(45.4541 -9.30464e-06 -0)
(45.4538 -7.77409e-06 -0)
(45.4533 -6.36226e-06 -0)
(45.4527 -5.15317e-06 -0)
(45.4522 -4.30272e-06 -0)
(45.4509 -4.13952e-06 -0)
(45.4562 -1.58209e-07 -0)
(45.4562 -4.84395e-07 -0)
(45.4562 -8.36485e-07 -0)
(45.4562 -1.23867e-06 -0)
(45.4561 -1.71297e-06 -0)
(45.4561 -2.27893e-06 -0)
(45.4561 -2.95213e-06 -0)
(45.4561 -3.74357e-06 -0)
(45.4561 -4.66156e-06 -0)
(45.456 -5.71299e-06 -0)
(45.456 -6.90016e-06 -0)
(45.4559 -8.21535e-06 -0)
(45.4559 -9.64083e-06 -0)
(45.4558 -1.11551e-05 -0)
(45.4557 -1.27366e-05 -0)
(45.4556 -1.43601e-05 -0)
(45.4555 -1.5991e-05 -0)
(45.4554 -1.75849e-05 -0)
(45.4553 -1.90903e-05 -0)
(45.4552 -2.04558e-05 -0)
(45.4551 -2.16388e-05 -0)
(45.455 -2.25983e-05 -0)
(45.4549 -2.32817e-05 -0)
(45.4548 -2.36345e-05 -0)
(45.4547 -2.36263e-05 -0)
(45.4547 -2.32507e-05 -0)
(45.4547 -2.25068e-05 -0)
(45.4547 -2.14079e-05 -0)
(45.4547 -1.99961e-05 -0)
(45.4547 -1.83362e-05 -0)
(45.4547 -1.65043e-05 -0)
(45.4547 -1.45827e-05 -0)
(45.4546 -1.26541e-05 -0)
(45.4544 -1.07906e-05 -0)
(45.4541 -9.04911e-06 -0)
(45.4538 -7.47481e-06 -0)
(45.4533 -6.06497e-06 -0)
(45.4527 -4.85169e-06 -0)
(45.4522 -3.97019e-06 -0)
(45.4509 -4.00046e-06 -0)
(45.4562 -1.6486e-07 -0)
(45.4562 -5.06725e-07 -0)
(45.4562 -8.80483e-07 -0)
(45.4562 -1.3142e-06 -0)
(45.4561 -1.83273e-06 -0)
(45.4561 -2.45896e-06 -0)
(45.4561 -3.21257e-06 -0)
(45.4561 -4.10755e-06 -0)
(45.4561 -5.15131e-06 -0)
(45.456 -6.34718e-06 -0)
(45.456 -7.69594e-06 -0)
(45.4559 -9.19213e-06 -0)
(45.4559 -1.08184e-05 -0)
(45.4558 -1.25463e-05 -0)
(45.4557 -1.43425e-05 -0)
(45.4556 -1.61731e-05 -0)
(45.4555 -1.8e-05 -0)
(45.4554 -1.97752e-05 -0)
(45.4553 -2.14402e-05 -0)
(45.4552 -2.29308e-05 -0)
(45.4551 -2.41877e-05 -0)
(45.455 -2.51598e-05 -0)
(45.4549 -2.57935e-05 -0)
(45.4548 -2.60322e-05 -0)
(45.4547 -2.58357e-05 -0)
(45.4547 -2.51946e-05 -0)
(45.4547 -2.41218e-05 -0)
(45.4547 -2.26507e-05 -0)
(45.4547 -2.08441e-05 -0)
(45.4547 -1.87927e-05 -0)
(45.4547 -1.66026e-05 -0)
(45.4547 -1.43828e-05 -0)
(45.4546 -1.2234e-05 -0)
(45.4544 -1.02379e-05 -0)
(45.4541 -8.45257e-06 -0)
(45.4538 -6.91708e-06 -0)
(45.4533 -5.61272e-06 -0)
(45.4527 -4.50588e-06 -0)
(45.4522 -3.57294e-06 -0)
(45.4509 -3.21888e-06 -0)
(45.4562 -1.74078e-07 -0)
(45.4562 -5.36595e-07 -0)
(45.4562 -9.37044e-07 -0)
(45.4562 -1.40821e-06 -0)
(45.4561 -1.97813e-06 -0)
(45.4561 -2.67171e-06 -0)
(45.4561 -3.51123e-06 -0)
(45.4561 -4.51439e-06 -0)
(45.4561 -5.69098e-06 -0)
(45.456 -7.04221e-06 -0)
(45.456 -8.56354e-06 -0)
(45.4559 -1.02465e-05 -0)
(45.4559 -1.20746e-05 -0)
(45.4558 -1.40182e-05 -0)
(45.4557 -1.60357e-05 -0)
(45.4556 -1.80803e-05 -0)
(45.4555 -2.01038e-05 -0)
(45.4554 -2.20528e-05 -0)
(45.4553 -2.38631e-05 -0)
(45.4552 -2.54601e-05 -0)
(45.4551 -2.67675e-05 -0)
(45.455 -2.77176e-05 -0)
(45.4549 -2.82499e-05 -0)
(45.4548 -2.83067e-05 -0)
(45.4548 -2.78457e-05 -0)
(45.4547 -2.68585e-05 -0)
(45.4547 -2.53735e-05 -0)
(45.4547 -2.34526e-05 -0)
(45.4547 -2.11912e-05 -0)
(45.4547 -1.87148e-05 -0)
(45.4547 -1.61643e-05 -0)
(45.4547 -1.3677e-05 -0)
(45.4546 -1.13702e-05 -0)
(45.4544 -9.32685e-06 -0)