/*--------------------------------*- C++ -*----------------------------------*\
  =========                 |
  \\      /  F ield         | OpenFOAM: The Open Source CFD Toolbox
   \\    /   O peration     | Website:  https://openfoam.org
    \\  /    A nd           | Version:  7
     \\/     M anipulation  |
\*---------------------------------------------------------------------------*/
FoamFile
{
    version     2.0;
    format      ascii;
    class       volVectorField;
    location    "0";
    object      Fc;
}
// * * * * * * * * * * * * * * * * * * * * * * * * * * * * * * * * * * * * * //

dimensions      [1 -2 -2 0 0 0 0];

internalField   nonuniform List<vector> 
58002
(
(0 0 0)
(0 0 0)
(0 0 0)
(0 0 0)
(0 0 0)
(0 0 0)
(0 0 0)
(0 0 0)
(0 0 0)
(0 0 0)
(0 0 0)
(-8.84449e-317 -1.07641e-316 0)
(-2.26368e-312 -2.07983e-312 0)
(-5.49776e-308 -3.8971e-308 0)
(-8.52248e-304 -4.73077e-304 0)
(-8.6923e-300 -3.82648e-300 0)
(-6.00154e-296 -2.12924e-296 0)
(-2.89904e-292 -8.41016e-293 0)
(-1.00822e-288 -2.45104e-289 0)
(-2.5859e-285 -5.35112e-286 0)
(-5.00108e-282 -9.06933e-283 0)
(-7.56493e-279 -1.22147e-279 0)
(-9.53429e-276 -1.39847e-276 0)
(-1.07911e-272 -1.46646e-273 0)
(-1.21055e-269 -1.52908e-270 0)
(-1.0474e-266 -1.26612e-267 0)
(-2.69187e-264 -3.09172e-265 0)
(4.29589e-263 4.85866e-264 0)
(2.34053e-260 2.57109e-261 0)
(2.99722e-258 3.29069e-259 0)
(9.14078e-257 9.94266e-258 0)
(1.21028e-253 1.30527e-254 0)
(-3.86426e-251 -4.12963e-252 0)
(-7.47295e-248 -7.91572e-249 0)
(1.50356e-246 1.57761e-247 0)
(8.84062e-243 9.18301e-244 0)
(-1.69353e-240 -1.74123e-241 0)
(-5.66985e-237 -5.77077e-238 0)
(1.64753e-236 1.66009e-237 0)
(2.53332e-232 2.52732e-233 0)
(-2.70315e-230 -2.67009e-231 0)
(-2.30067e-226 -2.25028e-227 0)
(1.25016e-224 1.21092e-225 0)
(1.25493e-220 1.20395e-221 0)
(-3.53712e-219 -3.3614e-220 0)
(-3.96343e-215 -3.73161e-216 0)
(4.81857e-214 4.49536e-215 0)
(1.49663e-212 1.38383e-213 0)
(9.02616e-211 8.27348e-212 0)
(8.12657e-209 7.38598e-210 0)
(-5.42646e-208 -4.89144e-209 0)
(-9.42259e-204 -8.42555e-205 0)
(-2.77032e-199 -2.45798e-200 0)
(-2.00577e-199 -1.76627e-200 0)
(1.54797e-197 1.35333e-198 0)
(2.62172e-194 2.2762e-195 0)
(1.64479e-189 1.4186e-190 0)
(4.20624e-189 3.60495e-190 0)
(-8.15278e-188 -6.94587e-189 0)
(-2.71812e-185 -2.30286e-186 0)
(-5.02515e-182 -4.23558e-183 0)
(-1.35827e-179 -1.13948e-180 0)
(2.34384e-177 1.9581e-178 0)
(3.51703e-176 2.9275e-177 0)
(-5.71766e-176 -4.74472e-177 0)
(-1.19249e-173 -9.87171e-175 0)
(-1.34865e-168 -1.1145e-169 0)
(-4.38604e-167 -3.62094e-168 0)
(-7.06306e-167 -5.83003e-168 0)
(2.92438e-166 2.4157e-167 0)
(5.43168e-165 4.49486e-166 0)
(5.12199e-164 4.25089e-165 0)
(3.66203e-163 3.05181e-164 0)
(2.15224e-162 1.80349e-163 0)
(1.08048e-161 9.11786e-163 0)
(4.75431e-161 4.04731e-162 0)
(1.86965e-160 1.60877e-161 0)
(6.67671e-160 5.8199e-161 0)
(2.22395e-159 1.96879e-160 0)
(7.26622e-159 6.5519e-160 0)
(2.1218e-158 1.95531e-159 0)
(5.6778e-158 5.36854e-159 0)
(1.62828e-157 1.58705e-158 0)
(4.9886e-157 5.04002e-158 0)
(1.38009e-156 1.45491e-157 0)
(3.26631e-156 3.62212e-157 0)
(6.70103e-156 7.89447e-157 0)
(1.22678e-155 1.55442e-156 0)
(2.03535e-155 2.81699e-156 0)
(3.21253e-155 4.9532e-156 0)
(4.4926e-155 7.91308e-156 0)
(7.31593e-155 1.51955e-155 0)
(-8.0874e-149 -2.05648e-149 0)
(-6.25145e-119 -2.00137e-119 0)
(1.98109e-104 7.32803e-105 0)
(0 0 0)
(0 0 0)
(0 0 0)
(0 0 0)
(0 0 0)
(0 0 0)
(0 0 0)
(0 0 0)
(0 0 0)
(0 0 0)
(0 0 0)
(9.71325e-315 1.17942e-314 0)
(2.99027e-310 2.73968e-310 0)
(5.01302e-306 3.54038e-306 0)
(3.88714e-302 2.14684e-302 0)
(1.44065e-298 6.29728e-299 0)
(3.00626e-295 1.05606e-295 0)
(2.83051e-292 8.09907e-293 0)
(-3.59634e-289 -8.58114e-290 0)
(-2.02887e-285 -4.09565e-286 0)
(-4.62422e-282 -8.12437e-283 0)
(-7.35853e-279 -1.14224e-279 0)
(-9.44131e-276 -1.32046e-276 0)
(-1.07561e-272 -1.38302e-273 0)
(-1.20944e-269 -1.43308e-270 0)
(-1.04714e-266 -1.18e-267 0)
(-2.69099e-264 -2.85836e-265 0)
(4.29832e-263 4.46827e-264 0)
(2.33749e-260 2.34591e-261 0)
(2.98866e-258 2.97185e-259 0)
(9.1156e-257 8.93352e-258 0)
(1.20724e-253 1.1715e-254 0)
(-3.85404e-251 -3.70143e-252 0)
(-7.45869e-248 -7.08488e-249 0)
(1.50024e-246 1.40865e-247 0)
(8.82588e-243 8.18707e-244 0)
(-1.68972e-240 -1.54819e-241 0)
(-5.66158e-237 -5.12362e-238 0)
(1.64253e-236 1.46808e-237 0)
(2.52888e-232 2.23212e-233 0)
(-2.69654e-230 -2.35018e-231 0)
(-2.29711e-226 -1.97682e-227 0)
(1.24719e-224 1.05978e-225 0)
(1.25309e-220 1.0514e-221 0)
(-3.52836e-219 -2.92315e-220 0)
(-3.95746e-215 -3.23725e-216 0)
(4.80556e-214 3.88146e-215 0)
(1.49286e-212 1.19072e-213 0)
(9.00821e-211 7.09612e-212 0)
(8.11613e-209 6.31475e-210 0)
(-5.41077e-208 -4.15819e-209 0)
(-9.3981e-204 -7.13397e-205 0)
(-2.76616e-199 -2.07418e-200 0)
(-2.00739e-199 -1.48705e-200 0)
(1.54335e-197 1.12964e-198 0)
(2.61408e-194 1.89065e-195 0)
(1.64071e-189 1.17266e-190 0)
(4.20399e-189 2.96947e-190 0)
(-8.12304e-188 -5.67105e-189 0)
(-2.70838e-185 -1.86917e-186 0)
(-5.00732e-182 -3.41687e-183 0)
(-1.35584e-179 -9.14974e-181 0)
(2.33524e-177 1.55889e-178 0)
(3.51145e-176 2.31934e-177 0)
(-5.67273e-176 -3.70832e-177 0)
(-1.18686e-173 -7.68098e-175 0)
(-1.3422e-168 -8.60225e-170 0)
(-4.3714e-167 -2.77566e-168 0)
(-7.06626e-167 -4.4473e-168 0)
(2.90039e-166 1.81038e-167 0)
(5.39816e-165 3.34384e-166 0)
(5.09096e-164 3.1318e-165 0)
(3.63967e-163 2.22533e-164 0)
(2.13893e-162 1.30095e-163 0)
(1.0737e-161 6.50354e-163 0)
(4.72398e-161 2.8532e-162 0)
(1.85748e-160 1.12038e-161 0)
(6.63223e-160 4.0021e-161 0)
(2.20895e-159 1.33631e-160 0)
(7.21829e-159 4.38857e-160 0)
(2.10849e-158 1.29218e-159 0)
(5.63852e-158 3.49581e-159 0)
(1.61035e-157 1.01452e-158 0)
(4.96224e-157 3.19412e-158 0)
(1.35713e-156 8.98626e-158 0)
(3.28215e-156 2.25472e-157 0)
(6.56005e-156 4.72607e-157 0)
(1.23254e-155 9.44118e-157 0)
(2.12298e-155 1.75986e-156 0)
(-5.59956e-151 -5.13855e-152 0)
(-9.81666e-152 -1.02616e-152 0)
(-1.32548e-147 -1.6323e-148 0)
(1.91579e-133 2.86538e-134 0)
(-4.20352e-119 -7.56616e-120 0)
(1.15443e-104 2.01747e-105 0)
(0 0 0)
(0 0 0)
(0 0 0)
(0 0 0)
(0 0 0)
(0 0 0)
(0 0 0)
(0 0 0)
(0 0 0)
(0 0 0)
(0 0 0)
(-3.52634e-314 -4.26702e-314 0)
(1.57625e-310 1.43841e-310 0)
(7.56642e-306 5.31766e-306 0)
(1.21359e-301 6.66077e-302 0)
(1.01371e-297 4.39442e-298 0)
(4.37562e-294 1.51998e-294 0)
(9.76872e-291 2.75302e-291 0)
(1.18657e-287 2.77436e-288 0)
(9.52126e-285 1.87128e-285 0)
(3.99491e-282 6.7829e-283 0)
(-2.27609e-279 -3.38566e-280 0)
(-7.00107e-276 -9.29769e-277 0)
(-9.80168e-273 -1.18626e-273 0)
(-1.1772e-269 -1.29994e-270 0)
(-1.03977e-266 -1.08384e-267 0)
(-2.65309e-264 -2.58345e-265 0)
(4.41589e-263 4.17747e-264 0)
(2.34155e-260 2.12597e-261 0)
(2.97197e-258 2.65157e-259 0)
(9.0282e-257 7.90648e-258 0)
(1.20257e-253 1.04085e-254 0)
(-3.80684e-251 -3.25445e-252 0)
(-7.43416e-248 -6.26874e-249 0)
(1.48508e-246 1.23449e-247 0)
(8.80092e-243 7.20843e-244 0)
(-1.68044e-240 -1.35576e-241 0)
(-5.64379e-237 -4.48413e-238 0)
(1.62201e-236 1.26876e-237 0)
(2.51866e-232 1.93898e-233 0)
(-2.68356e-230 -2.03273e-231 0)
(-2.29114e-226 -1.70725e-227 0)
(1.24111e-224 9.09623e-226 0)
(1.24975e-220 9.00695e-222 0)
(-3.51017e-219 -2.48698e-220 0)
(-3.94684e-215 -2.74838e-216 0)
(4.77497e-214 3.2675e-215 0)
(1.48455e-212 9.98201e-214 0)
(8.9437e-211 5.90837e-212 0)
(8.08666e-209 5.24744e-210 0)
(-5.37616e-208 -3.4257e-209 0)
(-9.33928e-204 -5.8421e-205 0)
(-2.75689e-199 -1.69261e-200 0)
(-2.01272e-199 -1.21263e-200 0)
(1.53234e-197 9.05748e-199 0)
(2.59678e-194 1.5054e-195 0)
(1.63077e-189 9.2683e-191 0)
(4.19907e-189 2.33869e-190 0)
(-8.05072e-188 -4.39251e-189 0)
(-2.68497e-185 -1.43465e-186 0)
(-4.96233e-182 -2.59594e-183 0)
(-1.34942e-179 -6.90905e-181 0)
(2.30988e-177 1.15703e-178 0)
(3.49569e-176 1.71222e-177 0)
(-5.56426e-176 -2.66359e-177 0)
(-1.17301e-173 -5.48467e-175 0)
(-1.32543e-168 -6.05009e-170 0)
(-4.33276e-167 -1.92974e-168 0)
(-7.06816e-167 -3.07e-168 0)
(2.84068e-166 1.20256e-167 0)
(5.31301e-165 2.19078e-166 0)
(5.0114e-164 2.01134e-165 0)
(3.58177e-163 1.39819e-164 0)
(2.10405e-162 7.98242e-164 0)
(1.05569e-161 3.88959e-163 0)
(4.64212e-161 1.65984e-162 0)
(1.82409e-160 6.3252e-162 0)
(6.50787e-160 2.18701e-161 0)
(2.16457e-159 7.0452e-161 0)
(7.08209e-159 2.2314e-160 0)
(2.06933e-158 6.31007e-160 0)
(5.48582e-158 1.61928e-159 0)
(1.59795e-157 4.56982e-159 0)
(4.61079e-157 1.27999e-158 0)
(1.42272e-156 3.84764e-158 0)
(2.86426e-156 7.5924e-158 0)
(6.88459e-156 1.80648e-157 0)
(1.09929e-155 2.90015e-157 0)
(3.24143e-152 8.80421e-154 0)
(9.93659e-144 2.87614e-145 0)
(-3.41161e-143 -1.10258e-144 0)
(6.22157e-139 2.3718e-140 0)
(1.7853e-134 8.39831e-136 0)
(-3.12042e-120 -1.77771e-121 0)
(2.25557e-105 1.16294e-106 0)
(0 0 0)
(0 0 0)
(0 0 0)
(0 0 0)
(0 0 0)
(0 0 0)
(0 0 0)
(0 0 0)
(0 0 0)
(0 0 0)
(0 0 0)
(-7.87938e-314 -9.50138e-314 0)
(-1.08594e-309 -9.87022e-310 0)
(-5.85804e-306 -4.09688e-306 0)
(4.49277e-302 2.45035e-302 0)
(9.37377e-298 4.02958e-298 0)
(6.96068e-294 2.39069e-294 0)
(3.03137e-290 8.41195e-291 0)
(8.04473e-287 1.84229e-287 0)
(1.2921e-283 2.4704e-284 0)
(1.25229e-280 2.05217e-281 0)
(7.76581e-278 1.10481e-278 0)
(3.24849e-275 4.0852e-276 0)
(7.00269e-273 7.94856e-274 0)
(-6.07512e-270 -6.22434e-271 0)
(-9.19791e-267 -8.8239e-268 0)
(-2.16046e-264 -1.91939e-265 0)
(6.50417e-263 5.57594e-264 0)
(2.46389e-260 2.02045e-261 0)
(2.9962e-258 2.40228e-259 0)
(8.99265e-257 7.0687e-258 0)
(1.19442e-253 9.24934e-255 0)
(-3.76882e-251 -2.87318e-252 0)
(-7.35285e-248 -5.50931e-249 0)
(1.46918e-246 1.08126e-247 0)
(8.74099e-243 6.31568e-244 0)
(-1.65255e-240 -1.17168e-241 0)
(-5.60422e-237 -3.8971e-238 0)
(1.62716e-236 1.1091e-237 0)
(2.52368e-232 1.68508e-233 0)
(-2.6579e-230 -1.7376e-231 0)
(-2.27985e-226 -1.45861e-227 0)
(1.22679e-224 7.67736e-226 0)
(1.24233e-220 7.60022e-222 0)
(-3.47549e-219 -2.07719e-220 0)
(-3.92722e-215 -2.29171e-216 0)
(4.73357e-214 2.69564e-215 0)
(1.47353e-212 8.18503e-214 0)
(8.84563e-211 4.7899e-212 0)
(8.05287e-209 4.24765e-210 0)
(-5.27273e-208 -2.70681e-209 0)
(-9.25212e-204 -4.61868e-205 0)
(-2.74489e-199 -1.33139e-200 0)
(-2.02513e-199 -9.53616e-201 0)
(1.51554e-197 6.9214e-199 0)
(2.56646e-194 1.13537e-195 0)
(1.61458e-189 6.90918e-191 0)
(4.18396e-189 1.72933e-190 0)
(-7.95976e-188 -3.17299e-189 0)
(-2.65344e-185 -1.01858e-186 0)
(-4.8992e-182 -1.80799e-183 0)
(-1.34135e-179 -4.74953e-181 0)
(2.27575e-177 7.71358e-179 0)
(3.47645e-176 1.12491e-177 0)
(-5.41752e-176 -1.66836e-177 0)
(-1.15462e-173 -3.37242e-175 0)
(-1.30278e-168 -3.59512e-170 0)
(-4.28221e-167 -1.11156e-168 0)
(-7.0764e-167 -1.71889e-168 0)
(2.76198e-166 6.23902e-168 0)
(5.20254e-165 1.0846e-166 0)
(4.90888e-164 9.35658e-166 0)
(3.50754e-163 6.04121e-165 0)
(2.05953e-162 3.15766e-164 0)
(1.03277e-161 1.38194e-163 0)
(4.53829e-161 5.15691e-163 0)
(1.78184e-160 1.65165e-162 0)
(6.35084e-160 4.50171e-162 0)
(2.11915e-159 1.01869e-161 0)
(6.8953e-159 1.66207e-161 0)
(2.01576e-158 -2.37823e-162 0)
(5.36771e-158 -1.50175e-160 0)
(1.51089e-157 -8.54062e-160 0)
(4.48166e-157 -3.90427e-159 0)
(1.3757e-156 -1.65217e-158 0)
(2.88745e-156 -4.50162e-158 0)
(-1.32812e-153 2.59089e-155 0)
(9.61952e-153 -2.2925e-154 0)
(1.49282e-147 -4.27696e-149 0)
(2.54275e-140 -8.66451e-142 0)
(-2.41867e-140 9.7325e-142 0)
(-5.55757e-132 2.62512e-133 0)
(8.79288e-125 -4.81364e-126 0)
(5.28856e-124 -3.17818e-125 0)
(-8.88298e-114 4.37383e-115 0)
(0 0 0)
(0 0 0)
(0 0 0)
(0 0 0)
(0 0 0)
(0 0 0)
(0 0 0)
(0 0 0)
(0 0 0)
(0 0 0)
(1.02637e-317 1.70276e-317 0)
(-4.0153e-313 -4.82512e-313 0)
(-1.30191e-308 -1.17859e-308 0)
(-1.86098e-304 -1.29511e-304 0)
(-1.37988e-300 -7.47839e-301 0)
(-5.30806e-297 -2.26263e-297 0)
(-8.97783e-294 -3.04834e-294 0)
(6.78661e-291 1.85395e-291 0)
(7.0603e-287 1.58295e-287 0)
(1.89209e-283 3.51664e-284 0)
(3.22745e-280 5.09865e-281 0)
(3.64705e-277 4.95337e-278 0)
(2.82039e-274 3.34984e-275 0)
(1.46328e-271 1.55233e-272 0)
(5.01395e-269 4.74593e-270 0)
(4.87165e-267 4.28013e-268 0)
(1.62219e-264 1.3087e-265 0)
(3.3003e-262 2.5526e-263 0)
(4.09291e-260 3.02172e-261 0)
(3.38621e-258 2.43477e-259 0)
(9.04596e-257 6.36907e-258 0)
(1.16258e-253 8.0272e-255 0)
(-4.20563e-251 -2.84586e-252 0)
(-6.68554e-248 -4.42628e-249 0)
(4.76512e-246 3.08441e-247 0)
(8.52299e-243 5.39045e-244 0)
(-1.65093e-240 -1.01939e-241 0)
(-6.0983e-237 -3.67286e-238 0)
(1.73564e-236 1.01857e-237 0)
(2.8627e-232 1.63531e-233 0)
(-2.60829e-230 -1.44899e-231 0)
(-2.2585e-226 -1.21903e-227 0)
(1.20578e-224 6.31672e-226 0)
(1.23486e-220 6.27115e-222 0)
(-3.40164e-219 -1.67253e-220 0)
(-3.89318e-215 -1.85101e-216 0)
(4.66162e-214 2.14067e-215 0)
(1.45016e-212 6.42361e-214 0)
(9.06479e-211 3.86731e-212 0)
(8.00932e-209 3.28496e-210 0)
(-5.24629e-208 -2.06435e-209 0)
(-9.12913e-204 -3.43903e-205 0)
(-2.72938e-199 -9.82159e-201 0)
(-2.03054e-199 -6.96242e-201 0)
(1.49662e-197 4.87525e-199 0)
(2.51671e-194 7.76079e-196 0)
(1.59925e-189 4.64923e-191 0)
(4.19015e-189 1.14307e-190 0)
(-7.82608e-188 -1.99305e-189 0)
(-2.6152e-185 -6.18044e-187 0)
(-4.82428e-182 -1.05043e-183 0)
(-1.33087e-179 -2.64616e-181 0)
(2.23561e-177 4.01344e-179 0)
(3.45052e-176 5.51299e-178 0)
(-5.24019e-176 -7.3126e-178 0)
(-1.13199e-173 -1.34528e-175 0)
(-1.27353e-168 -1.24333e-170 0)
(-4.2193e-167 -3.2007e-169 0)
(-7.08204e-167 -3.78588e-169 0)
(2.67063e-166 8.10219e-169 0)
(5.07509e-165 3.25355e-168 0)
(4.79191e-164 -8.82408e-167 0)
(3.42383e-163 -1.51444e-165 0)
(2.00991e-162 -1.43006e-164 0)
(1.00755e-161 -1.00049e-163 0)
(4.42544e-161 -5.70196e-163 0)
(1.73654e-160 -2.77831e-162 0)
(6.18493e-160 -1.19355e-161 0)
(2.04035e-159 -4.65386e-161 0)
(6.71226e-159 -1.78332e-160 0)
(1.97421e-158 -6.0443e-160 0)
(5.17766e-158 -1.81246e-159 0)
(1.79413e-157 -7.14083e-159 0)
(4.20943e-157 -1.8979e-158 0)
(1.52487e-153 -7.77268e-155 0)
(1.61236e-152 -9.28798e-154 0)
(-4.13651e-149 2.69633e-150 0)
(-1.46711e-144 1.08554e-145 0)
(-2.08806e-141 1.76315e-142 0)
(-2.50643e-137 2.4346e-138 0)
(1.84886e-134 -2.08869e-135 0)
(-1.24824e-129 1.66201e-130 0)
(7.33862e-124 -1.16217e-124 0)
(-1.69016e-118 3.09927e-119 0)
(1.97218e-113 -3.35048e-114 0)
(0 0 0)
(0 0 0)
(0 0 0)
(0 0 0)
(0 0 0)
(0 0 0)
(0 0 0)
(0 0 0)
(0 0 0)
(0 0 0)
(-1.68797e-316 -2.79128e-316 0)
(-7.86875e-312 -9.42305e-312 0)
(-2.01209e-307 -1.81422e-307 0)
(-2.78009e-303 -1.92524e-303 0)
(-2.12631e-299 -1.14507e-299 0)
(-9.42585e-296 -3.98389e-296 0)
(-2.55023e-292 -8.55946e-293 0)
(-4.43128e-289 -1.19143e-289 0)
(-4.98347e-286 -1.09346e-286 0)
(-3.24886e-283 -5.86573e-284 0)
(-1.9538e-281 -2.97195e-282 0)
(2.24918e-277 2.91087e-278 0)
(2.76231e-274 3.09e-275 0)
(1.91593e-271 1.89239e-272 0)
(9.07466e-269 7.89683e-270 0)
(2.0311e-266 1.62456e-267 0)
(5.83907e-264 4.2497e-265 0)
(6.7451e-262 4.67106e-263 0)
(5.69428e-260 3.75203e-261 0)
(3.4418e-258 2.19617e-259 0)
(1.938e-256 1.20673e-257 0)
(-2.65271e-253 -1.61027e-254 0)
(-1.35225e-250 -7.99811e-252 0)
(-1.84592e-248 -1.06214e-249 0)
(8.33349e-245 4.65999e-246 0)
(7.51727e-243 4.08135e-244 0)
(-1.80426e-240 -9.49806e-242 0)
(-1.55735e-236 -7.93669e-238 0)
(2.61796e-236 1.28943e-237 0)
(9.45114e-232 4.49126e-233 0)
(-2.45238e-230 -1.12252e-231 0)
(-2.26061e-226 -9.94903e-228 0)
(1.21228e-224 5.11939e-226 0)
(1.24483e-220 5.0325e-222 0)
(-3.38889e-219 -1.3083e-220 0)
(-3.8991e-215 -1.43376e-216 0)
(4.55213e-214 1.59006e-215 0)
(1.43244e-212 4.73822e-214 0)
(1.97669e-210 6.16886e-212 0)
(7.12885e-209 2.08967e-210 0)
(-5.86364e-208 -1.60626e-209 0)
(-8.99559e-204 -2.28977e-205 0)
(-2.70966e-199 -6.36702e-201 0)
(-2.10288e-199 -4.52517e-201 0)
(1.47156e-197 2.8711e-199 0)
(2.51593e-194 4.39417e-196 0)
(1.59063e-189 2.44661e-191 0)
(4.30752e-189 5.71201e-191 0)
(-7.57516e-188 -8.41216e-190 0)
(-2.56034e-185 -2.28185e-187 0)
(-4.71752e-182 -3.14943e-184 0)
(-1.31568e-179 -5.77233e-182 0)
(2.18205e-177 4.44843e-180 0)
(3.42439e-176 -1.28158e-179 0)
(-5.00894e-176 1.43005e-178 0)
(-1.10432e-173 5.97087e-176 0)
(-1.23963e-168 9.96206e-171 0)
(-4.14227e-167 4.4539e-169 0)
(-7.07164e-167 9.59331e-169 0)
(2.56919e-166 -4.23622e-168 0)
(4.93165e-165 -9.63251e-167 0)
(4.66132e-164 -1.05853e-165 0)
(3.33144e-163 -8.67303e-165 0)
(1.95588e-162 -5.77466e-164 0)
(9.80473e-162 -3.25541e-163 0)
(4.30631e-161 -1.59735e-162 0)
(1.68961e-160 -6.96595e-162 0)
(6.01362e-160 -2.74484e-161 0)
(2.11359e-159 -1.06491e-160 0)
(6.20225e-159 -3.44246e-160 0)
(2.02205e-158 -1.23484e-159 0)
(5.48902e-158 -3.68665e-159 0)
(-9.23605e-157 6.82509e-158 0)
(4.14656e-157 -3.37544e-158 0)
(2.24242e-151 -2.01525e-152 0)
(2.3424e-151 -2.33169e-152 0)
(-2.5707e-147 2.84755e-148 0)
(-2.03255e-141 2.52125e-142 0)
(-1.07267e-140 1.5028e-141 0)
(-2.96438e-135 4.74451e-136 0)
(7.52458e-134 -1.39692e-134 0)
(-4.06165e-129 8.92021e-130 0)
(6.39968e-124 -1.70064e-124 0)
(-7.5677e-118 2.45672e-118 0)
(1.49789e-113 -5.37429e-114 0)
(-1.36675e+09 7.20955e+07 0)
(1.22712e+06 1.66674e+06 0)
(148.775 79.2981 0)
(-13.2439 -7.66985 0)
(-8.21914 -5.67549 0)
(-2.66447 -2.45036 0)
(-0.0999356 -0.144578 0)
(0.00206524 0.00683671 0)
(-0.000223867 0.00472025 0)
(-0.00106258 0.00315575 0)
(-0.00115457 0.00207419 0)
(-0.000941777 0.00133187 0)
(-0.000660363 0.000831494 0)
(-0.000416038 0.000502947 0)
(-0.000240404 0.000294308 0)
(-0.000129177 0.000166944 0)
(-6.54381e-05 9.24432e-05 0)
(-3.17373e-05 5.05455e-05 0)
(-1.49085e-05 2.75355e-05 0)
(-1.29654e+09 6.99637e+07 0)
(720468 1.81694e+06 0)
(120.648 102.262 0)
(-11.6829 -10.3311 0)
(-7.31805 -7.46014 0)
(-2.30396 -3.03639 0)
(-0.0752735 -0.153255 0)
(0.00169301 0.00818997 0)
(-0.000366947 0.00546815 0)
(-0.00109677 0.00355952 0)
(-0.00114594 0.00228331 0)
(-0.000921368 0.00143493 0)
(-0.000641019 0.000878931 0)
(-0.000401716 0.000522594 0)
(-0.000231232 0.000301029 0)
(-0.000123916 0.00016826 0)
(-6.27097e-05 9.19008e-05 0)
(-3.04669e-05 4.9629e-05 0)
(-1.43969e-05 2.676e-05 0)
(-1.22202e+09 6.92288e+07 0)
(383043 1.61079e+06 0)
(84.3284 106.139 0)
(-9.71767 -12.5209 0)
(-6.09719 -8.92466 0)
(-1.73758 -3.2671 0)
(-0.0368977 -0.109204 0)
(0.00113036 0.0093759 0)
(-0.000605106 0.00611787 0)
(-0.00117965 0.00392139 0)
(-0.00116452 0.00247706 0)
(-0.000917999 0.00153505 0)
(-0.000632932 0.000928203 0)
(-0.000394726 0.000545176 0)
(-0.000226505 0.000310272 0)
(-0.000121101 0.000171306 0)
(-6.11854e-05 9.23799e-05 0)
(-2.97176e-05 4.92514e-05 0)
(-1.40775e-05 2.62431e-05 0)
(-1.14917e+09 6.80988e+07 0)
(184079 1.3389e+06 0)
(50.6391 93.8516 0)
(-7.5253 -14.2175 0)
(-4.6474 -9.96471 0)
(-1.08381 -3.03369 0)
(-0.00762553 -0.0361802 0)
(0.000413982 0.0103238 0)
(-0.000921213 0.00665375 0)
(-0.00130431 0.00423084 0)
(-0.00120745 0.00265148 0)
(-0.00092992 0.00163058 0)
(-0.000634795 0.000978493 0)
(-0.000394072 0.000570209 0)
(-0.000225559 0.000321729 0)
(-0.000120346 0.000175864 0)
(-6.06611e-05 9.37238e-05 0)
(-2.93926e-05 4.93044e-05 0)
(-1.39099e-05 2.5916e-05 0)
(-1.07763e+09 6.68817e+07 0)
(66142.9 1.09201e+06 0)
(24.8961 71.7341 0)
(-5.21724 -15.4451 0)
(-3.0638 -10.4398 0)
(-0.490695 -2.30737 0)
(0.00136959 0.0137577 0)
(-0.000402824 0.0109929 0)
(-0.00129389 0.00706191 0)
(-0.00146366 0.0044849 0)
(-0.00127259 0.00280593 0)
(-0.000956393 0.00172155 0)
(-0.0006461 0.00102983 0)
(-0.000399281 0.00059758 0)
(-0.000228011 0.000335204 0)
(-0.000121388 0.000181739 0)
(-6.0984e-05 9.57839e-05 0)
(-2.94159e-05 4.969e-05 0)
(-1.38607e-05 2.57205e-05 0)
(-1.00843e+09 6.6216e+07 0)
(-4394.88 885168 0)
(8.47483 46.0719 0)
(-2.84861 -16.2289 0)
(-1.46281 -10.0404 0)
(-0.107696 -1.24911 0)
(-2.76731e-05 0.0172457 0)
(-0.00126209 0.0113714 0)
(-0.00170245 0.00734629 0)
(-0.0016511 0.00468677 0)
(-0.00135843 0.00294256 0)
(-0.000997234 0.00180916 0)
(-0.000666835 0.00108284 0)
(-0.000410255 0.000627505 0)
(-0.000233705 0.000350679 0)
(-0.000124076 0.000188817 0)
(-6.20473e-05 9.84382e-05 0)
(-2.97294e-05 5.03244e-05 0)
(-1.39093e-05 2.56195e-05 0)
(-6.7856e-06 1.48919e-05 0)
(-2.86461e-06 7.64591e-06 0)
(-1.0208e-06 3.40017e-06 0)
(-2.85012e-07 1.22107e-06 0)
(-6.29212e-08 3.60993e-07 0)
(-1.11211e-08 9.07836e-08 0)
(-9.55464e-10 1.23545e-08 0)
(7.28708e-11 -1.91522e-09 0)
(8.93961e-12 -2.25965e-09 0)
(-1.94668e-13 -7.59366e-12 0)
(7.98207e-15 1.55392e-13 0)
(2.69392e-14 3.65819e-13 0)
(3.0107e-14 3.2438e-13 0)
(1.07802e-11 9.85797e-11 0)
(8.60666e-11 6.96189e-10 0)
(6.44526e-10 4.74627e-09 0)
(3.7898e-09 2.59479e-08 0)
(1.95372e-08 1.26329e-07 0)
(9.10224e-08 5.62622e-07 0)
(3.8113e-07 2.27483e-06 0)
(1.4552e-06 8.45906e-06 0)
(5.09138e-06 2.90353e-05 0)
(1.81059e-05 0.000101947 0)
(5.95404e-05 0.000332914 0)
(0.000172169 0.00096116 0)
(0.000466076 0.00261162 0)
(0.00119227 0.00674065 0)
(0.00288714 0.0165552 0)
(0.00661713 0.0386974 0)
(0.0143868 0.0863409 0)
(0.0298569 0.185172 0)
(0.0596248 0.385211 0)
(0.115254 0.783114 0)
(0.21589 1.56138 0)
(0.390595 3.05262 0)
(0.677789 5.83358 0)
(1.11519 10.8249 0)
(1.71105 19.2959 0)
(2.4017 32.5802 0)
(3.03806 51.349 0)
(3.45638 74.6794 0)
(3.60596 99.7355 0)
(3.60259 122.823 0)
(3.63987 141.309 0)
(3.86381 154.644 0)
(4.32573 163.608 0)
(5.0043 169.066 0)
(5.85279 171.748 0)
(6.83371 172.393 0)
(7.91595 171.581 0)
(9.06594 169.746 0)
(10.2551 167.203 0)
(11.4738 164.185 0)
(12.7241 160.876 0)
(14.0049 157.42 0)
(15.3066 153.91 0)
(16.6225 150.408 0)
(17.9635 146.973 0)
(19.3438 143.65 0)
(20.7651 140.446 0)
(22.2183 137.353 0)
(23.698 134.365 0)
(25.2118 131.477 0)
(26.768 128.693 0)
(28.3641 126.009 0)
(29.9913 123.416 0)
(31.6432 120.908 0)
(33.3234 118.484 0)
(35.0374 116.147 0)
(36.7817 113.895 0)
(38.5488 111.72 0)
(40.3346 109.618 0)
(42.145 107.593 0)
(43.9862 105.646 0)
(45.8539 103.776 0)
(47.7392 101.978 0)
(49.6347 100.248 0)
(51.5444 98.5895 0)
(53.4752 97.0058 0)
(55.4267 95.4966 0)
(57.3925 94.0565 0)
(59.3639 92.6815 0)
(61.3391 91.3682 0)
(63.3182 90.1124 0)
(65.2911 88.9015 0)
(67.235 87.7097 0)
(69.1103 86.4968 0)
(70.8644 85.2039 0)
(72.4195 83.7384 0)
(73.6445 81.9613 0)
(74.3218 79.6585 0)
(74.1667 76.5726 0)
(72.9577 72.5276 0)
(70.6227 67.49 0)
(67.3683 61.68 0)
(63.3895 55.3003 0)
(56.3699 46.5798 0)
(-6.62881e-06 1.43706e-05 0)
(-2.84899e-06 7.3506e-06 0)
(-1.04042e-06 3.26382e-06 0)
(-3.00227e-07 1.17227e-06 0)
(-6.93666e-08 3.46958e-07 0)
(-1.31054e-08 8.73076e-08 0)
(-1.25842e-09 1.18495e-08 0)
(1.27265e-10 -1.88222e-09 0)
(7.46052e-11 -2.20421e-09 0)
(2.53192e-14 -5.79769e-12 0)
(3.35119e-15 1.56264e-13 0)
(1.59506e-14 3.62364e-13 0)
(2.04659e-14 3.21809e-13 0)
(8.02665e-12 9.96569e-11 0)
(6.6909e-11 7.02381e-10 0)
(5.17527e-10 4.79338e-09 0)
(3.11295e-09 2.62066e-08 0)
(1.63256e-08 1.27627e-07 0)
(7.70834e-08 5.68538e-07 0)
(3.26213e-07 2.29888e-06 0)
(1.25612e-06 8.54871e-06 0)
(4.42438e-06 2.93421e-05 0)
(1.58269e-05 0.000103067 0)
(5.22618e-05 0.000336469 0)
(0.000151577 0.00097101 0)
(0.000411318 0.00263807 0)
(0.001054 0.00680845 0)
(0.00255487 0.0167211 0)
(0.00585639 0.0390847 0)
(0.0127231 0.087207 0)
(0.0263622 0.187048 0)
(0.0525091 0.389195 0)
(0.101085 0.791445 0)
(0.188209 1.57861 0)
(0.337625 3.08789 0)
(0.578856 5.90491 0)
(0.935753 10.9664 0)
(1.39823 19.5679 0)
(1.88551 33.0792 0)
(2.24381 52.2098 0)
(2.32709 76.0551 0)
(2.12565 101.748 0)
(1.80706 125.523 0)
(1.60217 144.674 0)
(1.66113 158.612 0)
(2.01772 168.093 0)
(2.63702 173.97 0)
(3.46729 176.981 0)
(4.46334 177.881 0)
(5.58118 177.26 0)
(6.77666 175.561 0)
(8.01972 173.105 0)
(9.30268 170.141 0)
(10.6241 166.865 0)
(11.975 163.423 0)
(13.3426 159.912 0)
(14.7237 156.395 0)
(16.1325 152.943 0)
(17.5804 149.604 0)
(19.0639 146.383 0)
(20.5733 143.271 0)
(22.1079 140.261 0)
(23.6784 137.355 0)
(25.2904 134.556 0)
(26.9375 131.858 0)
(28.611 129.247 0)
(30.3082 126.72 0)
(32.0357 124.279 0)
(33.7966 121.927 0)
(35.5841 119.662 0)
(37.3912 117.472 0)
(39.2171 115.355 0)
(41.0698 113.316 0)
(42.9535 111.359 0)
(44.8605 109.479 0)
(46.7817 107.667 0)
(48.7129 105.921 0)
(50.6605 104.248 0)
(52.6301 102.65 0)
(54.6176 101.125 0)
(56.6142 99.6635 0)
(58.6119 98.2584 0)
(60.6087 96.904 0)
(62.6004 95.5912 0)
(64.5681 94.2976 0)
(66.4757 92.9814 0)
(68.2676 91.5804 0)
(69.8658 90.0036 0)
(71.1499 88.1101 0)
(71.9248 85.6927 0)
(71.8829 82.4451 0)
(70.656 78.0319 0)
(67.9788 72.2623 0)
(63.7888 65.1681 0)
(58.3487 57.1095 0)
(51.82 48.3453 0)
(42.1379 37.2529 0)
(-6.52595e-06 1.3959e-05 0)
(-2.83702e-06 7.08796e-06 0)
(-1.0532e-06 3.1297e-06 0)
(-3.10366e-07 1.11774e-06 0)
(-7.38707e-08 3.29388e-07 0)
(-1.45245e-08 8.23474e-08 0)
(-1.47121e-09 1.09982e-08 0)
(1.78333e-10 -1.85816e-09 0)
(1.32336e-10 -2.11418e-09 0)
(1.74851e-13 -5.25772e-12 0)
(-1.2216e-15 1.64298e-13 0)
(5.48922e-15 3.58418e-13 0)
(1.12294e-14 3.18785e-13 0)
(5.42455e-12 1.03209e-10 0)
(4.8921e-11 7.22852e-10 0)
(3.99145e-10 4.93765e-09 0)
(2.48414e-09 2.69547e-08 0)
(1.33527e-08 1.31161e-07 0)
(6.42062e-08 5.83825e-07 0)
(2.75445e-07 2.35818e-06 0)
(1.07183e-06 8.76008e-06 0)
(3.80587e-06 3.00351e-05 0)
(1.37248e-05 0.000105581 0)
(4.55163e-05 0.000344168 0)
(0.000132404 0.000991747 0)
(0.000360215 0.00269232 0)
(0.000924568 0.00694346 0)
(0.00224247 0.0170399 0)
(0.00513763 0.0397996 0)
(0.011145 0.0887436 0)
(0.0230368 0.190261 0)
(0.0457206 0.395814 0)
(0.0875511 0.804971 0)
(0.16178 1.60607 0)
(0.287138 3.14326 0)
(0.484723 6.01516 0)
(0.765294 11.1801 0)
(1.10167 19.9632 0)
(1.39737 33.7637 0)
(1.49419 53.3057 0)
(1.26239 77.6656 0)
(0.731121 103.923 0)
(0.115636 128.293 0)
(-0.3231 148.039 0)
(-0.434005 162.534 0)
(-0.195729 172.502 0)
(0.350202 178.788 0)
(1.1485 182.128 0)
(2.14408 183.284 0)
(3.28109 182.851 0)
(4.5091 181.281 0)
(5.79804 178.914 0)
(7.13908 176.01 0)
(8.5244 172.773 0)
(9.93869 169.348 0)
(11.3686 165.835 0)
(12.8149 162.313 0)
(14.2916 158.854 0)
(15.8053 155.505 0)
(17.3493 152.269 0)
(18.9156 149.137 0)
(20.5073 146.111 0)
(22.1355 143.193 0)
(23.8022 140.381 0)
(25.4985 137.665 0)
(27.2177 135.034 0)
(28.9613 132.488 0)
(30.7362 130.032 0)
(32.5428 127.666 0)
(34.3723 125.382 0)
(36.2191 123.173 0)
(38.0852 121.039 0)
(39.9788 118.986 0)
(41.901 117.013 0)
(43.8419 115.109 0)
(45.7933 113.269 0)
(47.7534 111.492 0)
(49.7285 109.783 0)
(51.7201 108.14 0)
(53.7187 106.554 0)
(55.7127 105.011 0)
(57.6931 103.503 0)
(59.6526 102.015 0)
(61.5759 100.522 0)
(63.4264 98.9798 0)
(65.145 97.318 0)
(66.6436 95.4352 0)
(67.7958 93.1819 0)
(68.4076 90.3318 0)
(68.1825 86.5663 0)
(66.7087 81.475 0)
(63.5832 74.7162 0)
(58.6085 66.2282 0)
(51.9043 56.3111 0)
(43.9787 45.6642 0)
(35.1986 34.8087 0)
(24.481 22.9303 0)
(-6.46329e-06 1.36208e-05 0)
(-2.82716e-06 6.84685e-06 0)
(-1.05903e-06 2.99398e-06 0)
(-3.15479e-07 1.0573e-06 0)
(-7.64567e-08 3.08811e-07 0)
(-1.53553e-08 7.61845e-08 0)
(-1.58291e-09 9.87953e-09 0)
(2.26137e-10 -1.8346e-09 0)
(1.80317e-10 -1.99596e-09 0)
(2.92484e-13 -4.78065e-12 0)
(-6.31277e-15 1.7841e-13 0)
(-4.43102e-15 3.53669e-13 0)
(2.40948e-15 3.15649e-13 0)
(2.74187e-12 1.08319e-10 0)
(3.07384e-11 7.53301e-10 0)
(2.80069e-10 5.15166e-09 0)
(1.85626e-09 2.80665e-08 0)
(1.04021e-08 1.36395e-07 0)
(5.14854e-08 6.06316e-07 0)
(2.25464e-07 2.44489e-06 0)
(8.90897e-07 9.06754e-06 0)
(3.20038e-06 3.10404e-05 0)
(1.16834e-05 0.000109325 0)
(3.89696e-05 0.000355575 0)
(0.000113835 0.00102263 0)
(0.000310758 0.00277284 0)
(0.000799267 0.00714269 0)
(0.00193976 0.0175078 0)
(0.00444121 0.040848 0)
(0.00961835 0.091014 0)
(0.0198279 0.195078 0)
(0.0391866 0.405909 0)
(0.0745554 0.825877 0)
(0.136437 1.64852 0)
(0.238636 3.22662 0)
(0.393827 6.1713 0)
(0.599715 11.4539 0)
(0.812532 20.3958 0)
(0.923597 34.4029 0)
(0.774673 54.2122 0)
(0.253736 78.9294 0)
(-0.576835 105.693 0)
(-1.46549 130.649 0)
(-2.12889 150.996 0)
(-2.41465 166.056 0)
(-2.30735 176.516 0)
(-1.84987 183.206 0)
(-1.10024 186.87 0)
(-0.12337 188.282 0)
(1.01545 188.043 0)
(2.26243 186.619 0)
(3.58733 184.364 0)
(4.97773 181.55 0)
(6.41854 178.382 0)
(7.88984 175.007 0)
(9.37938 171.531 0)
(10.8903 168.039 0)
(12.4341 164.602 0)
(14.0122 161.264 0)
(15.6159 158.028 0)
(17.24 154.891 0)
(18.8898 151.857 0)
(20.5752 148.93 0)
(22.2945 146.104 0)
(24.038 143.37 0)
(25.8022 140.717 0)
(27.5911 138.151 0)
(29.4112 135.674 0)
(31.2598 133.284 0)
(33.1272 130.973 0)
(35.0096 128.734 0)
(36.9103 126.568 0)
(38.8362 124.479 0)
(40.7852 122.463 0)
(42.7461 120.507 0)
(44.7121 118.606 0)
(46.6831 116.76 0)
(48.6639 114.971 0)
(50.6527 113.236 0)
(52.6371 111.544 0)
(54.6013 109.872 0)
(56.5316 108.202 0)
(58.4122 106.504 0)
(60.2124 104.733 0)
(61.8738 102.813 0)
(63.3051 100.632 0)
(64.3734 98.0274 0)
(64.8861 94.7653 0)
(64.5606 90.513 0)
(63.0053 84.8493 0)
(59.7513 77.3215 0)
(54.4729 67.7291 0)
(47.196 56.3374 0)
(38.4307 43.9605 0)
(29.1218 31.8219 0)
(20.065 20.8523 0)
(11.2983 11.1162 0)
(-6.42781e-06 1.3324e-05 0)
(-2.81642e-06 6.61515e-06 0)
(-1.05706e-06 2.8522e-06 0)
(-3.1545e-07 9.90519e-07 0)
(-7.71737e-08 2.85722e-07 0)
(-1.56099e-08 6.91222e-08 0)
(-1.59416e-09 8.58306e-09 0)
(2.69955e-10 -1.80429e-09 0)
(2.17476e-10 -1.8556e-09 0)
(3.70467e-13 -4.19757e-12 0)
(-1.22522e-14 1.96007e-13 0)
(-1.37879e-14 3.4824e-13 0)
(-6.01069e-15 3.12405e-13 0)
(-1.44316e-13 1.14539e-10 0)
(1.15375e-11 7.91609e-10 0)
(1.54526e-10 5.42226e-09 0)
(1.19943e-09 2.94836e-08 0)
(7.33455e-09 1.43098e-07 0)
(3.83392e-08 6.35191e-07 0)
(1.7412e-07 2.55646e-06 0)
(7.06023e-07 9.46384e-06 0)
(2.58346e-06 3.23231e-05 0)
(9.62008e-06 0.000114312 0)
(3.23648e-05 0.000370571 0)
(9.52024e-05 0.00106357 0)
(0.000261369 0.00288074 0)
(0.000674856 0.00741487 0)
(0.00164114 0.0181636 0)
(0.00375867 0.0423586 0)
(0.00812895 0.0943503 0)
(0.0166973 0.202153 0)
(0.0327716 0.420236 0)
(0.0616378 0.853305 0)
(0.110785 1.69664 0)
(0.188561 3.30052 0)
(0.299184 6.27325 0)
(0.428679 11.5795 0)
(0.521967 20.5622 0)
(0.462022 34.6145 0)
(0.093897 54.4595 0)
(-0.676961 79.2138 0)
(-1.76185 106.028 0)
(-2.88637 131.151 0)
(-3.75767 151.844 0)
(-4.22251 167.391 0)
(-4.26289 178.376 0)
(-3.91648 185.553 0)
(-3.24173 189.652 0)
(-2.31107 191.433 0)
(-1.19605 191.505 0)
(0.0482553 190.352 0)
(1.39084 188.347 0)
(2.81418 185.772 0)
(4.2964 182.832 0)
(5.81477 179.667 0)
(7.35861 176.382 0)
(8.9316 173.061 0)
(10.5406 169.763 0)
(12.1811 166.522 0)
(13.8433 163.348 0)
(15.5245 160.248 0)
(17.2313 157.234 0)
(18.9709 154.314 0)
(20.7385 151.482 0)
(22.5249 148.729 0)