/*--------------------------------*- C++ -*----------------------------------*\
  =========                 |
  \\      /  F ield         | OpenFOAM: The Open Source CFD Toolbox
   \\    /   O peration     | Website:  https://openfoam.org
    \\  /    A nd           | Version:  7
     \\/     M anipulation  |
\*---------------------------------------------------------------------------*/
FoamFile
{
    version     2.0;
    format      ascii;
    class       volVectorField;
    location    "0";
    object      Fc;
}
// * * * * * * * * * * * * * * * * * * * * * * * * * * * * * * * * * * * * * //

dimensions      [1 -2 -2 0 0 0 0];

internalField   nonuniform List<vector> 
58002
(
(0 0 0)
(0 0 0)
(0 0 0)
(0 0 0)
(0 0 0)
(0 0 0)
(0 0 0)
(0 0 0)
(0 0 0)
(0 0 0)
(0 0 0)
(0 0 0)
(0 0 0)
(-8.99352e-318 1.28307e-318 0)
(-9.997e-313 1.51207e-313 0)
(-6.50471e-308 1.14197e-308 0)
(-2.88235e-303 6.22365e-304 0)
(-1.53421e-299 4.00612e-300 0)
(1.74837e-296 -5.42762e-297 0)
(3.69891e-292 -1.32676e-292 0)
(2.12873e-288 -8.5815e-289 0)
(7.43476e-285 -3.31e-285 0)
(1.71102e-281 -8.22797e-282 0)
(2.64796e-278 -1.36042e-278 0)
(2.82842e-275 -1.50972e-275 0)
(2.05946e-272 -1.1612e-272 0)
(1.06904e-269 -5.92756e-270 0)
(3.75651e-267 -2.2224e-267 0)
(9.4759e-265 -5.48358e-265 0)
(1.69206e-262 -1.02088e-262 0)
(1.7681e-260 -1.08036e-260 0)
(2.33058e-259 -1.44844e-259 0)
(-1.09605e-254 6.9306e-255 0)
(-2.1108e-253 1.35631e-253 0)
(1.53705e-248 -1.00294e-248 0)
(4.02676e-247 -2.66578e-247 0)
(-3.15718e-242 2.1194e-242 0)
(-7.06727e-241 4.80876e-241 0)
(3.89559e-236 -2.68605e-236 0)
(4.96887e-235 -3.47128e-235 0)
(-1.08415e-230 7.67354e-231 0)
(-1.22421e-227 8.77829e-228 0)
(-7.74907e-227 5.62935e-227 0)
(8.3937e-225 -6.17765e-225 0)
(6.10285e-220 -4.55094e-220 0)
(9.55169e-219 -7.21729e-219 0)
(-4.65434e-214 3.5639e-214 0)
(-3.8747e-209 3.00695e-209 0)
(-4.28298e-207 3.36906e-207 0)
(-7.37473e-207 5.88113e-207 0)
(7.43644e-202 -6.01308e-202 0)
(1.47356e-200 -1.2084e-200 0)
(3.41815e-200 -2.8433e-200 0)
(-5.2554e-197 4.43535e-197 0)
(-8.32849e-196 7.13288e-196 0)
(1.48679e-190 -1.29249e-190 0)
(1.13089e-188 -9.98043e-189 0)
(-1.50499e-184 1.34866e-184 0)
(-4.54761e-182 4.13845e-182 0)
(-2.32513e-180 2.1491e-180 0)
(3.65689e-178 -3.43352e-178 0)
(3.00972e-175 -2.87131e-175 0)
(1.10688e-174 -1.07328e-174 0)
(1.36767e-174 -1.34844e-174 0)
(-2.57795e-174 2.58562e-174 0)
(-7.55084e-174 7.70755e-174 0)
(5.31043e-163 -5.51877e-163 0)
(3.71157e-162 -3.92811e-162 0)
(-6.12348e-157 6.60155e-157 0)
(-3.9667e-156 4.35753e-156 0)
(-7.30281e-156 8.1787e-156 0)
(-7.87393e-156 8.99617e-156 0)
(-4.53425e-156 5.28872e-156 0)
(-5.90369e-157 7.03402e-157 0)
(1.23056e-156 -1.49829e-156 0)
(3.24622e-156 -4.0406e-156 0)
(5.07283e-156 -6.45854e-156 0)
(5.46053e-156 -7.11695e-156 0)
(3.83028e-156 -5.11505e-156 0)
(1.14305e-156 -1.56505e-156 0)
(1.54352e-157 -2.1675e-157 0)
(1.03614e-158 -1.49268e-158 0)
(-1.80227e-160 2.66479e-160 0)
(-6.13095e-162 9.30773e-162 0)
(-8.96644e-163 1.39738e-162 0)
(-8.81944e-164 1.40904e-163 0)
(-4.64664e-165 7.59131e-165 0)
(-3.04594e-166 5.06927e-166 0)
(2.00898e-167 -3.38212e-167 0)
(1.02542e-167 -1.72002e-167 0)
(-1.14327e-169 1.85498e-169 0)
(7.38166e-180 -1.09708e-179 0)
(-6.79201e-189 8.29487e-189 0)
(2.0941e-198 -1.62766e-198 0)
(-1.0789e-212 1.77962e-213 0)
(0 0 0)
(0 0 0)
(0 0 0)
(0 0 0)
(0 0 0)
(0 0 0)
(0 0 0)
(0 0 0)
(0 0 0)
(0 0 0)
(0 0 0)
(0 0 0)
(0 0 0)
(-1.90868e-317 2.77142e-318 0)
(-1.5324e-312 2.36487e-313 0)
(-6.79027e-308 1.21661e-308 0)
(-1.70926e-303 3.76151e-304 0)
(-2.5172e-299 6.69067e-300 0)
(-2.30186e-295 7.26617e-296 0)
(-1.45322e-291 5.29632e-292 0)
(-7.00692e-288 2.86893e-288 0)
(-2.74706e-284 1.24161e-284 0)
(-8.61511e-281 4.20556e-281 0)
(-2.03545e-277 1.06032e-277 0)
(-3.52253e-274 1.9112e-274 0)
(-4.32149e-271 2.46127e-271 0)
(-3.87277e-268 2.20083e-268 0)
(-2.44986e-265 1.46074e-265 0)
(-1.14176e-262 6.7919e-263 0)
(-3.84561e-260 2.35605e-260 0)
(-7.22187e-258 4.5005e-258 0)
(-1.39205e-256 8.80691e-257 0)
(6.79229e-252 -4.36758e-252 0)
(8.35106e-251 -5.45515e-251 0)
(-2.24395e-246 1.48792e-246 0)
(-1.11606e-245 7.50759e-246 0)
(4.07346e-242 -2.77881e-242 0)
(4.59034e-241 -3.17429e-241 0)
(-8.12918e-237 5.69701e-237 0)
(-1.08133e-234 7.67911e-235 0)
(-3.14481e-231 2.26294e-231 0)
(-1.60695e-228 1.17161e-228 0)
(-1.48548e-224 1.09737e-224 0)
(-5.47661e-223 4.09936e-223 0)
(8.50698e-219 -6.45255e-219 0)
(1.10955e-217 -8.52876e-218 0)
(-3.33098e-213 2.59501e-213 0)
(-8.39091e-209 6.62602e-209 0)
(-1.21439e-207 9.72159e-208 0)
(4.97008e-204 -4.03417e-204 0)
(1.01551e-202 -8.35922e-203 0)
(1.92035e-200 -1.60338e-200 0)
(-6.44005e-199 5.45519e-199 0)
(-6.00662e-193 5.16317e-193 0)
(-2.74942e-191 2.39877e-191 0)
(-1.05716e-187 9.36362e-188 0)
(-2.74207e-184 2.46615e-184 0)
(-7.8273e-182 7.14917e-182 0)
(-3.30713e-181 3.06794e-181 0)
(8.90171e-177 -8.38836e-177 0)
(1.88465e-175 -1.8043e-175 0)
(-1.53127e-174 1.48976e-174 0)
(-3.62059e-172 3.58085e-172 0)
(-1.16022e-171 1.16706e-171 0)
(1.63894e-170 -1.67753e-170 0)
(1.48466e-167 -1.54699e-167 0)
(2.44001e-163 -2.58906e-163 0)
(1.6455e-162 -1.77839e-162 0)
(-2.93055e-157 3.22656e-157 0)
(-1.10993e-155 1.24536e-155 0)
(-3.55299e-155 4.065e-155 0)
(-5.40577e-155 6.31137e-155 0)
(-5.36581e-155 6.39759e-155 0)
(-2.79473e-155 3.40437e-155 0)
(-3.53439e-156 4.39971e-156 0)
(6.74557e-156 -8.58332e-156 0)
(1.10829e-155 -1.44242e-155 0)
(9.44513e-156 -1.25852e-155 0)
(7.85534e-156 -1.07251e-155 0)
(3.79936e-156 -5.31702e-156 0)
(8.76783e-157 -1.25757e-156 0)
(1.15943e-157 -1.70449e-157 0)
(9.94106e-159 -1.4985e-158 0)
(4.40213e-160 -6.8043e-160 0)
(9.75034e-163 -1.54359e-162 0)
(-9.72467e-163 1.57256e-162 0)
(-7.07271e-165 1.16353e-164 0)
(-4.84509e-166 8.06046e-166 0)
(-8.99762e-170 1.49752e-169 0)
(1.11898e-167 -1.8242e-167 0)
(-1.26867e-169 1.95066e-169 0)
(4.15538e-180 -5.65315e-180 0)
(-2.43121e-189 2.60959e-189 0)
(1.67594e-197 -1.12281e-197 0)
(-4.84017e-212 1.00861e-212 0)
(0 0 0)
(0 0 0)
(0 0 0)
(0 0 0)
(0 0 0)
(0 0 0)
(0 0 0)
(0 0 0)
(0 0 0)
(0 0 0)
(0 0 0)
(0 0 0)
(0 0 0)
(6.3598e-318 -9.39659e-319 0)
(1.44299e-312 -2.27189e-313 0)
(1.57266e-307 -2.87584e-308 0)
(9.2287e-303 -2.07037e-303 0)
(3.07324e-298 -8.31779e-299 0)
(6.03243e-294 -1.93707e-294 0)
(7.22078e-290 -2.67512e-290 0)
(5.42765e-286 -2.25818e-286 0)
(2.62041e-282 -1.20297e-282 0)
(8.27603e-279 -4.10326e-279 0)
(1.71782e-275 -9.08054e-276 0)
(2.36847e-272 -1.30672e-272 0)
(2.10924e-269 -1.21647e-269 0)
(1.23267e-266 -7.16928e-267 0)
(4.44078e-264 -2.68298e-264 0)
(9.60267e-262 -5.85412e-262 0)
(1.11205e-259 -6.9354e-260 0)
(3.88021e-258 -2.46218e-258 0)
(1.69346e-254 -1.08989e-254 0)
(1.37454e-251 -8.98721e-252 0)
(3.99567e-250 -2.65241e-250 0)
(-2.56173e-245 1.72556e-245 0)
(-2.99307e-244 2.04537e-244 0)
(9.29813e-240 -6.44369e-240 0)
(1.17404e-238 -8.24765e-239 0)
(-6.13176e-234 4.36588e-234 0)
(-1.06509e-232 7.68571e-233 0)
(2.45105e-228 -1.79235e-228 0)
(-3.19301e-226 2.36601e-226 0)
(1.20648e-220 -9.05914e-221 0)
(1.1567e-218 -8.80165e-219 0)
(2.33229e-216 -1.79859e-216 0)
(-1.35949e-215 1.06259e-215 0)
(5.08255e-210 -4.02669e-210 0)
(1.15011e-207 -9.23714e-208 0)
(5.31976e-206 -4.33197e-206 0)
(-8.33432e-204 6.88238e-204 0)
(-7.98158e-202 6.68518e-202 0)
(-4.61483e-198 3.92125e-198 0)
(-3.81933e-196 3.29302e-196 0)
(3.96827e-191 -3.47256e-191 0)
(1.11494e-188 -9.90471e-189 0)
(3.22007e-187 -2.90466e-187 0)
(-1.3698e-185 1.25488e-185 0)
(-1.22744e-181 1.14214e-181 0)
(-5.76634e-181 5.45042e-181 0)
(8.26056e-177 -7.93223e-177 0)
(1.43949e-175 -1.40449e-175 0)
(-1.88028e-174 1.86458e-174 0)
(-1.85187e-172 1.86723e-172 0)
(-5.18944e-172 5.32306e-172 0)
(6.66104e-169 -6.95455e-169 0)
(9.97172e-167 -1.06016e-166 0)
(1.21726e-164 -1.31816e-164 0)
(6.3909e-164 -7.04986e-164 0)
(-9.22246e-159 1.03647e-158 0)
(-2.958e-155 3.38818e-155 0)
(-4.73687e-154 5.53381e-154 0)
(-1.25741e-153 1.49954e-153 0)
(-1.70259e-153 2.07418e-153 0)
(-1.57799e-153 1.96436e-153 0)
(-6.81004e-154 8.66269e-154 0)
(-1.07579e-154 1.39865e-154 0)
(1.39672e-155 -1.8574e-155 0)
(4.89799e-155 -6.66985e-155 0)
(5.29096e-155 -7.3832e-155 0)
(2.46266e-155 -3.52108e-155 0)
(5.66494e-156 -8.29521e-156 0)
(9.39052e-157 -1.40834e-156 0)
(1.00641e-157 -1.54655e-157 0)
(6.51082e-159 -1.02468e-158 0)
(2.31911e-160 -3.7298e-160 0)
(3.50647e-162 -5.7424e-162 0)
(-6.80644e-165 1.12934e-164 0)
(-5.14044e-165 8.57251e-165 0)
(-2.88159e-166 4.76485e-166 0)
(9.72699e-168 -1.55687e-167 0)
(-1.27084e-169 1.88881e-169 0)
(3.82172e-181 -4.93773e-181 0)
(-2.89386e-191 2.91834e-191 0)
(4.30427e-197 -2.76208e-197 0)
(-8.81834e-212 2.08636e-212 0)
(0 0 0)
(0 0 0)
(0 0 0)
(0 0 0)
(0 0 0)
(0 0 0)
(0 0 0)
(0 0 0)
(0 0 0)
(0 0 0)
(0 0 0)
(0 0 0)
(0 0 0)
(-1.54786e-317 2.32641e-318 0)
(-1.79344e-312 2.87958e-313 0)
(-1.00739e-307 1.87939e-308 0)
(-5.66057e-304 1.29409e-304 0)
(3.05896e-299 -8.42777e-300 0)
(1.71403e-294 -5.59745e-295 0)
(2.88613e-290 -1.08669e-290 0)
(2.63858e-286 -1.11535e-286 0)
(1.50859e-282 -7.03411e-283 0)
(5.70791e-279 -2.87456e-279 0)
(1.46338e-275 -7.85369e-276 0)
(2.61403e-272 -1.46714e-272 0)
(3.26344e-269 -1.91006e-269 0)
(2.88282e-266 -1.71502e-266 0)
(1.75772e-263 -1.07995e-263 0)
(7.42527e-261 -4.63286e-261 0)
(2.12936e-258 -1.35395e-258 0)
(3.13208e-256 -2.02551e-256 0)
(4.29049e-255 -2.81455e-255 0)
(-1.9509e-251 1.29941e-251 0)
(-3.97104e-248 2.68314e-248 0)
(-1.95525e-246 1.34048e-246 0)
(-2.95071e-244 2.05234e-244 0)
(1.00281e-238 -7.07252e-239 0)
(3.42466e-237 -2.44837e-237 0)
(-2.22842e-232 1.6149e-232 0)
(-2.28192e-230 1.67615e-230 0)
(-2.91634e-227 2.171e-227 0)
(-9.37004e-226 7.06884e-226 0)
(5.17552e-221 -3.95697e-221 0)
(3.55691e-218 -2.75624e-218 0)
(6.66603e-217 -5.23569e-217 0)
(-2.70702e-213 2.1552e-213 0)
(-1.05886e-211 8.54602e-212 0)
(1.83634e-209 -1.50269e-209 0)
(8.39267e-207 -6.96425e-207 0)
(1.02934e-202 -8.66313e-203 0)
(1.98748e-201 -1.69684e-201 0)
(-2.32917e-196 2.01769e-196 0)
(-1.90056e-194 1.67089e-194 0)
(1.22734e-192 -1.09535e-192 0)
(1.20672e-189 -1.09351e-189 0)
(2.33266e-187 -2.1468e-187 0)
(1.64816e-186 -1.54077e-186 0)
(-7.20321e-182 6.84078e-182 0)
(-5.12831e-181 4.94797e-181 0)
(4.72585e-178 -4.63277e-178 0)
(1.88515e-176 -1.87797e-176 0)
(2.51259e-174 -2.54437e-174 0)
(1.08133e-173 -1.11363e-173 0)
(-1.31427e-168 1.37734e-168 0)
(-6.62895e-168 7.07331e-168 0)
(8.78363e-168 -9.5467e-168 0)
(1.18628e-162 -1.31355e-162 0)
(5.86647e-161 -6.61795e-161 0)
(1.83046e-160 -2.10396e-160 0)
(-6.12411e-156 7.17531e-156 0)
(-2.619e-153 3.13057e-153 0)
(-1.86686e-152 2.27885e-152 0)
(-4.13196e-152 5.15421e-152 0)
(-5.04525e-152 6.43173e-152 0)
(-4.151e-152 5.407e-152 0)
(-1.50588e-152 2.00471e-152 0)
(-2.36948e-153 3.22706e-153 0)
(-2.36656e-154 3.30147e-154 0)
(4.94635e-155 -7.07163e-155 0)
(8.14854e-155 -1.19316e-154 0)
(4.43717e-155 -6.64987e-155 0)
(4.71974e-156 -7.2416e-156 0)
(5.3381e-157 -8.38902e-157 0)
(4.72301e-158 -7.59292e-158 0)
(2.55112e-159 -4.18242e-159 0)
(5.23392e-161 -8.71825e-161 0)
(7.39108e-163 -1.24415e-162 0)
(-7.7872e-166 1.31135e-165 0)
(-2.68861e-165 4.46052e-165 0)
(6.82168e-168 -1.08875e-167 0)
(-8.54739e-170 1.2584e-169 0)
(-1.13621e-182 1.45068e-182 0)
(-3.4202e-185 3.42927e-185 0)
(7.66804e-197 -5.11248e-197 0)
(-2.58426e-211 7.37329e-212 0)
(0 0 0)
(0 0 0)
(0 0 0)
(0 0 0)
(0 0 0)
(0 0 0)
(0 0 0)
(0 0 0)
(0 0 0)
(0 0 0)
(0 0 0)
(0 0 0)
(0 0 0)
(4.28249e-318 -6.54573e-319 0)
(5.04091e-313 -8.25102e-314 0)
(3.32466e-308 -6.32543e-309 0)
(1.28489e-303 -2.99245e-304 0)
(3.10877e-299 -8.71632e-300 0)
(4.97854e-295 -1.65308e-295 0)
(5.66901e-291 -2.16896e-291 0)
(4.80078e-287 -2.06159e-287 0)
(2.9641e-283 -1.40375e-283 0)
(1.291e-279 -6.60477e-280 0)
(3.87269e-276 -2.11095e-276 0)
(8.0613e-273 -4.60291e-273 0)
(1.13828e-269 -6.76639e-270 0)
(1.11321e-266 -6.75928e-267 0)
(7.436e-264 -4.6422e-264 0)
(3.40611e-261 -2.16531e-261 0)
(1.05526e-258 -6.82521e-259 0)
(2.64584e-257 -1.74117e-257 0)
(-2.55644e-254 1.70653e-254 0)
(-4.91623e-251 3.3286e-251 0)
(-1.80044e-249 1.23617e-249 0)
(8.39333e-245 -5.84801e-245 0)
(7.50773e-243 -5.30612e-243 0)
(1.25233e-239 -8.97295e-240 0)
(6.29189e-238 -4.57005e-238 0)
(-6.08458e-233 4.48045e-233 0)
(-3.26939e-230 2.44037e-230 0)
(-1.21824e-228 9.21624e-229 0)
(6.22849e-225 -4.77553e-225 0)
(3.6222e-222 -2.81493e-222 0)
(1.21117e-218 -9.54094e-219 0)
(1.26602e-217 -1.01098e-217 0)
(-1.55111e-214 1.25569e-214 0)
(-1.35865e-211 1.11514e-211 0)
(-2.18637e-211 1.81965e-211 0)
(4.69163e-205 -3.96012e-205 0)
(9.38698e-204 -8.03739e-204 0)
(-9.52262e-201 8.27244e-201 0)
(-2.18941e-196 1.93013e-196 0)
(-3.45949e-195 3.09569e-195 0)
(1.94032e-194 -1.76287e-194 0)
(1.46056e-190 -1.34765e-190 0)
(2.47049e-186 -2.31553e-186 0)
(5.42064e-185 -5.1617e-185 0)
(-2.66361e-183 2.57706e-183 0)
(-1.49149e-179 1.46623e-179 0)
(-1.42719e-178 1.42569e-178 0)
(5.82475e-175 -5.91362e-175 0)
(4.35793e-173 -4.49824e-173 0)
(1.48244e-172 -1.55652e-172 0)
(-3.149e-168 3.36547e-168 0)
(-1.76877e-166 1.92532e-166 0)
(-4.94039e-166 5.47921e-166 0)
(1.53717e-162 -1.73718e-162 0)
(6.66049e-161 -7.66945e-161 0)
(1.79161e-160 -2.10215e-160 0)
(-4.31368e-158 5.16011e-158 0)
(-9.19807e-154 1.12288e-153 0)
(-1.54199e-151 1.92313e-151 0)
(-6.27009e-151 7.99356e-151 0)
(-1.17648e-150 1.53294e-150 0)
(-1.33347e-150 1.77518e-150 0)
(-9.78995e-151 1.33198e-150 0)
(-3.08996e-151 4.30204e-151 0)
(-4.47235e-152 6.38029e-152 0)
(-5.04872e-153 7.38126e-153 0)
(-3.86253e-154 5.78095e-154 0)
(3.76998e-155 -5.77203e-155 0)
(5.23456e-155 -8.20386e-155 0)
(2.57954e-155 -4.14002e-155 0)
(3.82558e-156 -6.27334e-156 0)
(3.1842e-157 -5.31446e-157 0)
(4.16272e-159 -7.04951e-159 0)
(1.13997e-160 -1.94846e-160 0)
(8.14181e-164 -1.38748e-163 0)
(-2.63157e-165 4.40109e-165 0)
(-6.14434e-168 9.87449e-168 0)
(-1.56482e-170 2.32159e-170 0)
(1.86053e-177 -2.4162e-177 0)
(-2.9265e-182 3.05332e-182 0)
(3.4342e-196 -2.5409e-196 0)
(-8.18338e-212 3.11491e-212 0)
(0 0 0)
(0 0 0)
(0 0 0)
(0 0 0)
(0 0 0)
(0 0 0)
(0 0 0)
(0 0 0)
(0 0 0)
(0 0 0)
(0 0 0)
(0 0 0)
(0 0 0)
(1.31182e-318 -2.03856e-319 0)
(2.02522e-313 -3.37808e-314 0)
(1.43723e-309 -2.78762e-310 0)
(-2.07407e-304 4.91928e-305 0)
(-1.16079e-299 3.31124e-300 0)
(-3.13284e-295 1.05745e-295 0)
(-4.97905e-291 1.93544e-291 0)
(-4.95687e-287 2.16226e-287 0)
(-3.21942e-283 1.54852e-283 0)
(-1.40669e-279 7.31068e-280 0)
(-4.19566e-276 2.32292e-276 0)
(-8.72551e-273 5.06605e-273 0)
(-1.25225e-269 7.55759e-270 0)
(-1.25014e-266 7.72663e-267 0)
(-8.40967e-264 5.32614e-264 0)
(-3.81256e-261 2.46269e-261 0)
(-1.32312e-258 8.69888e-259 0)
(-7.74227e-257 5.18137e-257 0)
(3.2933e-253 -2.23322e-253 0)
(8.92266e-251 -6.13179e-251 0)
(5.07499e-249 -3.53784e-249 0)
(-1.00419e-245 7.10372e-246 0)
(-7.30753e-244 5.24158e-244 0)
(1.03475e-238 -7.52336e-239 0)
(3.45653e-236 -2.548e-236 0)
(1.21083e-234 -9.04997e-235 0)
(-4.54004e-232 3.43979e-232 0)
(-4.5489e-228 3.49315e-228 0)
(-1.91294e-227 1.48892e-227 0)
(2.69334e-221 -2.12508e-221 0)
(5.33201e-220 -4.26502e-220 0)
(-8.64753e-217 7.01263e-217 0)
(-4.87184e-216 4.00553e-216 0)
(1.20915e-212 -1.00804e-212 0)
(1.11458e-207 -9.42337e-208 0)
(3.02511e-206 -2.5943e-206 0)
(-5.33312e-204 4.64008e-204 0)
(-5.71328e-199 5.04405e-199 0)
(-1.72077e-197 1.54192e-197 0)
(-4.1677e-198 3.79135e-198 0)
(-4.02609e-193 3.71928e-193 0)
(-1.3258e-191 1.24408e-191 0)
(1.03888e-186 -9.90439e-187 0)
(1.53466e-185 -1.4867e-185 0)
(-8.42642e-183 8.29528e-183 0)
(-7.38727e-180 7.39018e-180 0)
(-6.64298e-179 6.75368e-179 0)
(7.33359e-175 -7.57843e-175 0)
(4.28356e-173 -4.50112e-173 0)
(1.23104e-172 -1.31612e-172 0)
(-3.51855e-169 3.83006e-169 0)
(-2.23047e-166 2.47359e-166 0)
(-8.17698e-166 9.24212e-166 0)
(1.38601e-163 -1.59659e-163 0)
(1.2872e-159 -1.51095e-159 0)
(3.27398e-158 -3.91626e-158 0)
(9.17925e-158 -1.11961e-157 0)
(-2.86505e-155 3.56745e-155 0)
(-1.75866e-151 2.23808e-151 0)
(-5.24872e-150 6.8298e-150 0)
(-1.42335e-149 1.89302e-149 0)
(-2.32909e-149 3.16451e-149 0)
(-2.49773e-149 3.46852e-149 0)
(-2.52205e-149 3.58509e-149 0)
(-3.45115e-149 5.0285e-149 0)
(-2.55438e-149 3.81393e-149 0)
(-1.86625e-149 2.85114e-149 0)
(-8.81615e-150 1.3773e-149 0)
(-1.39482e-150 2.23077e-150 0)
(-2.56444e-152 4.19972e-152 0)
(-2.22272e-153 3.71494e-153 0)
(-6.56808e-155 1.11539e-154 0)
(5.23576e-156 -9.01553e-156 0)
(1.54262e-158 -2.6803e-158 0)
(5.09463e-161 -8.80912e-161 0)
(4.10316e-163 -6.95362e-163 0)
(-1.14986e-167 1.87822e-167 0)
(-9.37574e-169 1.42683e-168 0)
(1.72399e-172 -2.34009e-172 0)
(-9.05082e-182 1.03127e-181 0)
(2.86287e-192 -2.52047e-192 0)
(3.22094e-217 -1.78952e-217 0)
(-1.00634e-77 4.58217e-78 0)
(9.14699e-62 -3.68775e-62 0)
(1.84794e-48 -5.42659e-49 0)
(9.52314e-40 -2.05122e-40 0)
(7.15377e-34 -1.21612e-34 0)
(1.18253e-29 -1.74607e-30 0)
(2.67469e-26 -3.81045e-27 0)
(1.65248e-23 -2.4977e-24 0)
(4.45063e-21 -7.6005e-22 0)
(6.80128e-19 -1.35285e-19 0)
(7.04189e-17 -1.65459e-17 0)
(5.55606e-15 -1.55286e-15 0)
(3.52553e-13 -1.17437e-13 0)
(1.84503e-11 -7.31786e-12 0)
(7.86903e-10 -3.71188e-10 0)
(2.66264e-08 -1.49366e-08 0)
(6.94482e-07 -4.63696e-07 0)
(1.36491e-05 -1.0859e-05 0)
(0.000197669 -0.000187511 0)
(9.10865e-78 -2.11879e-78 0)
(7.98239e-62 -1.98042e-62 0)
(1.34941e-48 -2.72472e-49 0)
(8.42683e-40 -1.33796e-40 0)
(7.71375e-34 -1.02873e-34 0)
(1.57564e-29 -1.95247e-30 0)
(4.17332e-26 -5.28359e-27 0)
(3.18008e-23 -4.47274e-24 0)
(9.92958e-21 -1.6291e-21 0)
(1.71531e-18 -3.34327e-19 0)
(1.96494e-16 -4.58052e-17 0)
(1.64459e-14 -4.59335e-15 0)
(1.05727e-12 -3.52904e-13 0)
(5.34998e-11 -2.12523e-11 0)
(2.1169e-09 -9.97684e-10 0)
(6.44821e-08 -3.60005e-08 0)
(1.48751e-06 -9.83016e-07 0)
(2.56593e-05 -2.00574e-05 0)
(0.000325959 -0.00030113 0)
(9.03334e-78 -8.42833e-79 0)
(8.62229e-62 -1.03896e-62 0)
(1.31768e-48 -1.49131e-49 0)
(9.17199e-40 -9.15748e-41 0)
(9.08369e-34 -8.37377e-35 0)
(2.11191e-29 -2.01689e-30 0)
(5.84734e-26 -6.32366e-27 0)
(5.13271e-23 -6.58427e-24 0)
(1.76836e-20 -2.7436e-21 0)
(3.3049e-18 -6.23932e-19 0)
(4.01446e-16 -9.21388e-17 0)
(3.44515e-14 -9.55658e-15 0)
(2.20979e-12 -7.34767e-13 0)
(1.08131e-10 -4.27901e-11 0)
(4.02693e-09 -1.88769e-09 0)
(1.13267e-07 -6.27081e-08 0)
(2.3872e-06 -1.55702e-06 0)
(3.75315e-05 -2.87728e-05 0)
(0.000436203 -0.000392248 0)
(3.60513e-77 4.90102e-79 0)
(9.29084e-62 -6.23892e-64 0)
(1.65699e-48 -4.29147e-50 0)
(1.07125e-39 -4.14444e-41 0)
(1.22489e-33 -6.03592e-35 0)
(3.2818e-29 -2.13374e-30 0)
(9.14875e-26 -7.96505e-27 0)
(8.94965e-23 -1.01409e-23 0)
(3.377e-20 -4.86543e-21 0)
(6.7422e-18 -1.2198e-18 0)
(8.53711e-16 -1.91424e-16 0)
(7.4163e-14 -2.02893e-14 0)
(4.69898e-12 -1.54669e-12 0)
(2.20452e-10 -8.64554e-11 0)
(7.69452e-09 -3.57275e-09 0)
(1.99794e-07 -1.09318e-07 0)
(3.85828e-06 -2.47714e-06 0)
(5.55357e-05 -4.16832e-05 0)
(0.000591887 -0.000517793 0)
(-6.7044e-67 -8.81329e-68 0)
(1.05012e-61 1.1046e-62 0)
(1.99307e-48 1.19344e-49 0)
(1.42014e-39 3.22615e-41 0)
(1.85168e-33 -1.22985e-35 0)
(5.77226e-29 -1.99284e-30 0)
(1.61664e-25 -1.04364e-26 0)
(1.65457e-22 -1.59882e-23 0)
(6.74516e-20 -8.89749e-21 0)
(1.42437e-17 -2.45295e-18 0)
(1.8489e-15 -4.02729e-16 0)
(1.61294e-13 -4.32831e-14 0)
(9.96789e-12 -3.23298e-12 0)
(4.44302e-10 -1.72056e-10 0)
(1.44633e-08 -6.63252e-09 0)
(3.46064e-07 -1.86671e-07 0)
(6.13091e-06 -3.86706e-06 0)
(8.0922e-05 -5.93931e-05 0)
(0.000791847 -0.000673779 0)
(-5.76132e-67 -1.78526e-67 0)
(1.21965e-61 2.75254e-62 0)
(2.77095e-48 3.96986e-49 0)
(2.05191e-39 1.68702e-40 0)
(3.05409e-33 1.07949e-34 0)
(1.12662e-28 -4.49722e-31 0)
(3.36567e-25 -1.38883e-26 0)
(3.33605e-22 -2.6359e-23 0)
(1.41408e-19 -1.68312e-20 0)
(3.12934e-17 -5.09127e-18 0)
(4.09485e-15 -8.60976e-16 0)
(3.55536e-13 -9.3073e-14 0)
(2.11092e-11 -6.71787e-12 0)
(8.87292e-10 -3.38187e-10 0)
(2.68223e-08 -1.21147e-08 0)
(5.90727e-07 -3.13401e-07 0)
(9.60957e-06 -5.9438e-06 0)
(0.00011643 -8.34721e-05 0)
(0.00104981 -0.000868685 0)
(0.00194938 -0.00220029 0)
(0.0139388 -0.0186705 0)
(0.0477656 -0.0758197 0)
(0.0568205 -0.106744 0)
(0.0385948 -0.0857527 0)
(0.0111232 -0.029245 0)
(0.000234665 -0.000731695 0)
(-1.984e-07 7.36911e-07 0)
(-3.87362e-08 1.72644e-07 0)
(-1.18883e-13 6.42807e-13 0)
(5.49189e-13 -3.66094e-12 0)
(5.53199e-12 -4.65584e-11 0)
(5.48175e-11 -6.04179e-10 0)
(3.93032e-10 -6.02573e-09 0)
(1.97532e-09 -4.71765e-08 0)
(6.05953e-09 -2.98347e-07 0)
(3.9445e-10 -1.57009e-06 0)
(-1.35251e-07 -7.29063e-06 0)
(-1.10413e-06 -3.04119e-05 0)
(-6.12755e-06 -0.000115187 0)
(-2.77694e-05 -0.000400208 0)
(-0.00010839 -0.00127474 0)
(-0.000375432 -0.00374462 0)
(-0.00118086 -0.0102499 0)
(-0.00343871 -0.0264527 0)
(-0.00941685 -0.0650595 0)
(-0.024503 -0.153556 0)
(-0.0609318 -0.348965 0)
(-0.145282 -0.764672 0)
(-0.332819 -1.61652 0)
(-0.733067 -3.29507 0)
(-1.55153 -6.46548 0)
(-3.1535 -12.1931 0)
(-6.15344 -22.0782 0)
(-11.5145 -38.3242 0)
(-20.5676 -63.4896 0)
(-34.7406 -99.5317 0)
(-54.8148 -146.127 0)
(-79.9811 -199.385 0)
(-106.846 -250.895 0)
(-132.365 -295.221 0)
(-155.245 -331.71 0)
(-174.139 -359.488 0)
(-188.411 -378.812 0)
(-197.987 -390.549 0)
(-203.199 -395.871 0)
(-204.625 -396.011 0)
(-203.044 -392.29 0)
(-199.549 -386.472 0)
(-195.5 -380.878 0)
(-191.01 -375.561 0)
(-186.153 -370.517 0)
(-180.968 -365.73 0)
(-175.495 -361.201 0)
(-169.764 -356.92 0)
(-163.806 -352.882 0)
(-157.65 -349.088 0)
(-151.308 -345.522 0)
(-144.802 -342.187 0)
(-138.147 -339.081 0)
(-131.356 -336.2 0)
(-124.447 -333.544 0)
(-117.427 -331.113 0)
(-110.308 -328.903 0)
(-103.107 -326.922 0)
(-95.828 -325.169 0)
(-88.4866 -323.651 0)
(-81.0934 -322.369 0)
(-73.6616 -321.331 0)
(-66.2069 -320.546 0)
(-58.7392 -320.023 0)
(-51.2771 -319.77 0)
(-43.8397 -319.802 0)
(-36.4478 -320.133 0)
(-29.129 -320.78 0)
(-21.9066 -321.762 0)
(-14.8166 -323.098 0)
(-7.89942 -324.815 0)
(-1.2027 -326.936 0)
(5.2139 -329.49 0)
(11.2851 -332.507 0)
(16.9254 -336.016 0)
(22.0331 -340.05 0)
(26.4848 -344.629 0)
(30.1298 -349.774 0)
(32.7884 -355.488 0)
(34.2413 -361.753 0)
(34.2277 -368.5 0)
(32.4451 -375.617 0)
(28.5564 -382.883 0)
(22.208 -389.94 0)
(13.0877 -396.251 0)
(1.01476 -401.008 0)
(-13.9186 -403.153 0)
(-31.1199 -401.403 0)
(-49.3208 -394.48 0)
(-66.5181 -381.525 0)
(0.00285893 -0.00311211 0)
(0.0180636 -0.0231 0)
(0.0463523 -0.0695192 0)
(0.0436969 -0.076736 0)
(0.0268047 -0.0550496 0)
(0.00599434 -0.0143931 0)
(4.00371e-06 -1.12518e-05 0)
(-1.80142e-07 5.94228e-07 0)
(-2.79755e-08 1.0885e-07 0)
(9.95673e-14 -4.60361e-13 0)
(2.61271e-14 -1.45087e-13 0)
(4.8674e-16 -3.29632e-15 0)
(5.61354e-20 -4.74101e-19 0)
(1.12119e-18 -1.22165e-17 0)
(2.39248e-17 -3.55267e-16 0)
(3.41887e-16 -7.64064e-15 0)
(1.9445e-15 -8.20701e-14 0)
(5.57595e-15 -1.41413e-12 0)
(-3.29399e-13 -2.23914e-11 0)
(-8.82574e-12 -2.7196e-10 0)
(-1.33002e-10 -2.68969e-09 0)
(-1.51144e-09 -2.29515e-08 0)
(-1.38019e-08 -1.68705e-07 0)
(-1.02632e-07 -1.05314e-06 0)
(-6.44304e-07 -5.70643e-06 0)
(-3.61311e-06 -2.81618e-05 0)
(-1.88569e-05 -0.000131182 0)
(-9.26737e-05 -0.000581447 0)
(-0.000424419 -0.00242037 0)
(-0.00179206 -0.00934278 0)
(-0.00699212 -0.0334639 0)
(-0.0247373 -0.10899 0)
(-0.0798255 -0.324314 0)
(-0.239457 -0.897761 0)
(-0.676273 -2.3398 0)
(-1.80027 -5.74649 0)
(-4.46527 -13.1505 0)
(-10.131 -27.5608 0)
(-20.6097 -51.9538 0)
(-38.1603 -89.6543 0)
(-61.4193 -135.569 0)
(-86.9745 -181.997 0)
(-112.439 -225.145 0)
(-135.735 -262.483 0)
(-155.476 -292.892 0)
(-170.922 -316.179 0)
(-181.966 -332.882 0)
(-188.925 -343.89 0)
(-191.971 -349.5 0)
(-191.275 -349.773 0)
(-188.14 -346.812 0)
(-183.557 -342.195 0)
(-178.506 -337.573 0)
(-173.163 -333.191 0)
(-167.561 -329.041 0)
(-161.73 -325.119 0)
(-155.697 -321.427 0)
(-149.477 -317.955 0)
(-143.092 -314.705 0)
(-136.557 -311.674 0)
(-129.886 -308.861 0)
(-123.095 -306.268 0)
(-116.194 -303.892 0)
(-109.195 -301.732 0)
(-102.114 -299.793 0)
(-94.9587 -298.078 0)
(-87.7417 -296.588 0)
(-80.4763 -295.33 0)
(-73.1756 -294.308 0)
(-65.8568 -293.531 0)
(-58.5301 -293.007 0)
(-51.2151 -292.744 0)
(-43.9318 -292.756 0)
(-36.7018 -293.054 0)
(-29.5536 -293.653 0)
(-22.5123 -294.57 0)
(-15.6144 -295.822 0)
(-8.90153 -297.43 0)
(-2.42221 -299.415 0)
(3.7634 -301.798 0)
(9.58967 -304.604 0)
(14.9714 -307.853 0)
(19.8089 -311.566 0)
(23.9823 -315.754 0)
(27.3479 -320.422 0)
(29.7369 -325.555 0)
(30.9481 -331.115 0)
(30.748 -337.014 0)
(28.876 -343.126 0)
(25.0536 -349.21 0)
(19.01 -354.925 0)
(10.5367 -359.779 0)
(-0.430485 -363.06 0)
(-13.6965 -363.907 0)
(-28.6397 -361.33 0)
(-44.1133 -354.412 0)
(-58.4286 -342.62 0)
(0.00354082 -0.00372125 0)
(0.0197387 -0.0241648 0)
(0.0418639 -0.0595853 0)
(0.0384673 -0.0635293 0)
(0.0223598 -0.0427792 0)
(0.00436539 -0.00966752 0)
(-5.21152e-07 1.33642e-06 0)
(-2.24424e-07 6.67607e-07 0)
(-2.52066e-08 8.7277e-08 0)
(4.72708e-14 -1.91485e-13 0)
(2.12016e-14 -1.01216e-13 0)
(6.57532e-16 -3.73805e-15 0)
(2.3724e-20 -1.63009e-19 0)
(1.08651e-19 -9.21991e-19 0)
(2.47459e-18 -2.67872e-17 0)
(3.18311e-17 -4.62739e-16 0)
(-6.96103e-16 1.48797e-14 0)
(-2.51508e-15 9.62834e-14 0)
(8.58413e-15 -1.29993e-12 0)
(-2.75418e-13 -2.30363e-11 0)
(-7.1603e-12 -2.40876e-10 0)
(-1.01323e-10 -2.16202e-09 0)
(-1.06087e-09 -1.67014e-08 0)
(-8.6905e-09 -1.08864e-07 0)
(-5.87053e-08 -6.12019e-07 0)
(-3.50599e-07 -3.13253e-06 0)
(-1.94853e-06 -1.5228e-05 0)
(-1.02715e-05 -7.12522e-05 0)
(-5.08175e-05 -0.000316299 0)
(-0.00023066 -0.00129856 0)
(-0.000964631 -0.00494105 0)
(-0.00368542 -0.0172488 0)
(-0.0127251 -0.0545766 0)
(-0.0407166 -0.16032 0)
(-0.123638 -0.447394 0)
(-0.360327 -1.19894 0)
(-1.00785 -3.08515 0)
(-2.67632 -7.54418 0)
(-6.55285 -17.0436 0)
(-14.028 -33.7867 0)
(-26.5261 -59.4924 0)
(-43.8747 -92.3046 0)
(-64.5768 -128.524 0)
(-86.8111 -164.938 0)
(-108.56 -198.722 0)
(-128.214 -228.153 0)
(-144.642 -252.308 0)
(-157.376 -271.129 0)
(-166.463 -285.114 0)
(-172.235 -294.945 0)
(-175.114 -301.265 0)
(-175.533 -304.659 0)
(-173.581 -305.068 0)
(-169.928 -303.44 0)
(-165.157 -300.626 0)
(-159.676 -297.223 0)
(-153.777 -293.662 0)
(-147.676 -290.286 0)
(-141.409 -287.125 0)
(-134.991 -284.172 0)
(-128.438 -281.433 0)
(-121.763 -278.902 0)
(-114.978 -276.583 0)
(-108.097 -274.474 0)
(-101.135 -272.579 0)
(-94.0994 -270.9 0)
(-87.005 -269.44 0)
(-79.8646 -268.206 0)
(-72.692 -267.2 0)
(-65.5049 -266.43 0)
(-58.3147 -265.903 0)
(-51.1415 -265.628 0)
(-44.0063 -265.616 0)
(-36.9313 -265.876 0)
(-29.9456 -266.423 0)
(-23.0754 -267.271 0)
(-16.3578 -268.433 0)
(-9.83524 -269.926 0)
(-3.55674 -271.767 0)
(2.41775 -273.973 0)
(8.02293 -276.561 0)
(13.1748 -279.543 0)
(17.7765 -282.931 0)
(21.7131 -286.726 0)
(24.8482 -290.916 0)
(27.026 -295.481 0)
(28.0628 -300.36 0)
(27.7528 -305.46 0)
(25.872 -310.628 0)
(22.195 -315.639 0)
(16.5175 -320.158 0)
(8.70993 -323.737 0)
(-1.20911 -325.696 0)
(-12.9685 -325.189 0)
(-25.9213 -321.51 0)
(-38.9904 -313.812 0)
(-50.6828 -301.869 0)
(0.00445307 -0.004522 0)
(0.0213235 -0.0250451 0)
(0.037131 -0.0503292 0)
(0.0316251 -0.0493566 0)
(0.0162376 -0.0291222 0)
(0.00235784 -0.0048539 0)
(-4.34512e-07 1.02663e-06 0)
(-2.07428e-07 5.63105e-07 0)
(-1.74048e-08 5.44123e-08 0)
(-8.37981e-14 3.02772e-13 0)
(1.25472e-14 -5.26642e-14 0)
(9.56703e-16 -4.69911e-15 0)
(1.82258e-20 -1.05857e-19 0)
(5.77679e-21 -4.02679e-20 0)
(1.47357e-19 -1.2594e-18 0)
(-3.91817e-18 4.23775e-17 0)
(-8.31336e-16 1.19558e-14 0)
(-6.07456e-15 1.26561e-13 0)
(-5.45464e-15 1.97292e-13 0)
(1.03148e-14 -1.24255e-12 0)
(-1.48608e-13 -1.45501e-11 0)
(-3.95963e-12 -1.41122e-10 0)
(-5.31813e-11 -1.1718e-09 0)
(-5.04818e-10 -8.09883e-09 0)
(-3.77197e-09 -4.77259e-08 0)
(-2.44323e-08 -2.55523e-07 0)
(-1.46787e-07 -1.30817e-06 0)
(-8.43804e-07 -6.54434e-06 0)
(-4.61382e-06 -3.16145e-05 0)
(-2.29229e-05 -0.000140315 0)
(-0.000104298 -0.000575014 0)
(-0.000431132 -0.00215383 0)
(-0.0015986 -0.00726862 0)
(-0.00541211 -0.0224676 0)
(-0.0173065 -0.0657419 0)
(-0.0530313 -0.184639 0)
(-0.154886 -0.49496 0)
(-0.42648 -1.25283 0)
(-1.10133 -2.98008 0)
(-2.67199 -6.67852 0)
(-6.08324 -14.0984 0)
(-12.986 -28.0453 0)
(-24.4106 -49.4324 0)
(-39.992 -76.4924 0)
(-58.2581 -106.104 0)
(-77.912 -136.279 0)
(-97.06 -164.471 0)
(-114.301 -189.214 0)
(-128.704 -209.761 0)
(-139.912 -226.073 0)
(-147.965 -238.498 0)
(-153.118 -247.548 0)
(-155.762 -253.821 0)
(-156.267 -257.795 0)
(-154.992 -259.902 0)
(-152.298 -260.573 0)
(-148.489 -260.165 0)
(-143.776 -258.899 0)
(-138.427 -257.122 0)
(-132.628 -255.086 0)
(-126.506 -252.959 0)
(-120.141 -250.836 0)
(-113.592 -248.795 0)
(-106.9 -246.878 0)
(-100.098 -245.115 0)
(-93.2087 -243.533 0)
(-86.2515 -242.143 0)
(-79.2443 -240.957 0)
(-72.2033 -239.985 0)
(-65.1483 -239.234 0)
(-58.092 -238.711 0)
(-51.0562 -238.426 0)
(-44.0629 -238.389 0)
(-37.1355 -238.611 0)
(-30.3038 -239.102 0)
(-23.5942 -239.876 0)
(-17.0447 -240.941 0)
(-10.698 -242.313 0)
(-4.60329 -244.001 0)
(1.17995 -246.016 0)
(6.58699 -248.366 0)
(11.5354 -251.054 0)
(15.9309 -254.076 0)
(19.663 -257.413 0)
(22.602 -261.027 0)
(24.6015 -264.853 0)
(25.4926 -268.776 0)
(25.0916 -272.622 0)
(23.2106 -276.149 0)
(19.6801 -279.018 0)
(14.3821 -280.807 0)
(7.29794 -280.887 0)
(-1.40307 -278.737 0)
(-11.3161 -273.987 0)
(-21.7435 -266.236 0)
(-31.6289 -254.34 0)
(-39.6728 -238.386 0)
(0.00555014 -0.00545065 0)
(0.0218588 -0.0246801 0)
(0.0315931 -0.0409047 0)
(0.0255214 -0.0377942 0)
(0.0114427 -0.0193392 0)
(0.00121527 -0.00234076 0)
(-3.82208e-07 8.38649e-07 0)
(-1.67029e-07 4.17761e-07 0)
(-1.02735e-08 2.93335e-08 0)
(-2.22041e-13 7.25535e-13 0)
(8.00806e-15 -3.00547e-14 0)
(1.01339e-15 -4.39156e-15 0)
(6.36072e-21 -3.20707e-20 0)
(-7.40223e-23 4.38934e-22 0)
(6.20401e-21 -4.39262e-20 0)
(-3.73057e-18 3.22238e-17 0)
(-5.24096e-17 5.69906e-16 0)
(-6.67381e-16 9.5913e-15 0)
(-6.11496e-15 1.26258e-13 0)
(1.14159e-15 -4.02966e-14 0)
(5.93294e-15 -6.52025e-13 0)
(-6.49969e-14 -6.89722e-12 0)
(-1.70184e-12 -6.21257e-11 0)
(-2.05112e-11 -4.56275e-10 0)
(-1.75235e-10 -2.81558e-09 0)
(-1.24984e-09 -1.57462e-08 0)
(-8.18737e-09 -8.48519e-08 0)
(-5.1813e-08 -4.55645e-07 0)
(-3.20492e-07 -2.44317e-06 0)
(-1.76875e-06 -1.18687e-05 0)
(-8.85548e-06 -5.28963e-05 0)
(-3.99532e-05 -0.000214225 0)
(-0.000159656 -0.000773243 0)
(-0.000574511 -0.00252508 0)
(-0.00195232 -0.00781484 0)
(-0.00643791 -0.0235361 0)