/*--------------------------------*- C++ -*----------------------------------*\
  =========                 |
  \\      /  F ield         | OpenFOAM: The Open Source CFD Toolbox
   \\    /   O peration     | Website:  https://openfoam.org
    \\  /    A nd           | Version:  7
     \\/     M anipulation  |
\*---------------------------------------------------------------------------*/
FoamFile
{
    version     2.0;
    format      ascii;
    class       volVectorField;
    location    "0";
    object      Fc;
}
// * * * * * * * * * * * * * * * * * * * * * * * * * * * * * * * * * * * * * //

dimensions      [1 -2 -2 0 0 0 0];

internalField   nonuniform List<vector> 
58002
(
(0 0 0)
(0 0 0)
(0 0 0)
(0 0 0)
(0 0 0)
(0 0 0)
(0 0 0)
(0 0 0)
(0 0 0)
(0 0 0)
(0 0 0)
(0 0 0)
(8.82791e-316 -7.13451e-316 0)
(6.70758e-311 -5.9764e-311 0)
(2.80905e-306 -2.85114e-306 0)
(6.7322e-302 -7.92549e-302 0)
(9.52381e-298 -1.32394e-297 0)
(8.26328e-294 -1.37341e-293 0)
(4.57721e-290 -9.161e-290 0)
(1.68829e-286 -4.11925e-286 0)
(4.31268e-283 -1.29207e-282 0)
(8.04443e-280 -3.01127e-279 0)
(1.19532e-276 -5.66961e-276 0)
(1.64283e-273 -1.02429e-272 0)
(2.52116e-270 -2.0535e-269 0)
(3.54592e-267 -4.06675e-266 0)
(4.53468e-265 -6.31978e-264 0)
(-5.53661e-263 9.93018e-262 0)
(-7.52588e-260 1.62409e-258 0)
(-3.82371e-257 9.34631e-256 0)
(-8.16589e-255 2.79566e-253 0)
(-1.54101e-253 7.59965e-252 0)
(4.05811e-249 -4.71017e-247 0)
(-1.99689e-248 -5.52888e-246 0)
(5.40961e-244 3.34895e-242 0)
(2.68162e-242 9.3456e-241 0)
(-2.47023e-237 -5.99617e-236 0)
(-3.87726e-236 -7.23307e-235 0)
(1.12901e-232 1.71107e-231 0)
(3.68622e-231 4.70292e-230 0)
(-2.81616e-226 -3.10035e-225 0)
(-5.75876e-225 -5.57065e-224 0)
(3.19045e-220 2.74941e-219 0)
(5.27888e-219 4.09674e-218 0)
(-2.23369e-214 -1.57485e-213 0)
(-2.7013e-213 -1.74273e-212 0)
(7.35456e-209 4.36778e-208 0)
(8.684e-208 4.7715e-207 0)
(1.88375e-207 9.61809e-207 0)
(-1.64504e-205 -7.83415e-205 0)
(-5.68594e-202 -2.53384e-201 0)
(-1.44968e-197 -6.06259e-197 0)
(-1.14372e-196 -4.49992e-196 0)
(1.31804e-192 4.8898e-192 0)
(5.79624e-191 2.03167e-190 0)
(3.40173e-187 1.12861e-186 0)
(2.99639e-186 9.42503e-186 0)
(-3.35734e-182 -1.00267e-181 0)
(-4.52844e-180 -1.28569e-179 0)
(-3.59426e-177 -9.712e-177 0)
(-2.02169e-176 -5.20393e-176 0)
(1.28519e-173 3.15396e-173 0)
(1.33078e-172 3.11573e-172 0)
(-2.5236e-168 -5.64035e-168 0)
(-4.05321e-166 -8.65278e-166 0)
(-1.29784e-163 -2.64781e-163 0)
(-8.21766e-163 -1.60303e-162 0)
(4.14137e-158 7.72788e-158 0)
(1.27229e-156 2.27177e-156 0)
(5.94559e-156 1.01603e-155 0)
(1.16058e-155 1.89815e-155 0)
(1.31041e-155 2.05111e-155 0)
(1.13575e-155 1.70127e-155 0)
(5.26257e-156 7.54388e-156 0)
(-5.77128e-157 -7.91689e-157 0)
(-5.22547e-156 -6.85823e-156 0)
(-9.76234e-156 -1.2254e-155 0)
(-1.33161e-155 -1.5978e-155 0)
(-1.3976e-155 -1.60227e-155 0)
(-1.19599e-155 -1.30952e-155 0)
(-6.97594e-156 -7.29178e-156 0)
(-1.99938e-156 -1.99396e-156 0)
(5.51142e-160 5.24036e-160 0)
(5.87537e-160 5.3227e-160 0)
(5.62484e-160 4.85341e-160 0)
(3.95655e-160 3.25135e-160 0)
(1.63551e-160 1.28033e-160 0)
(9.48946e-162 7.08228e-162 0)
(-6.09454e-167 -4.34545e-167 0)
(-1.48294e-166 -1.01482e-166 0)
(-1.69673e-166 -1.12345e-166 0)
(-1.98508e-166 -1.28739e-166 0)
(-2.40438e-166 -1.55186e-166 0)
(-3.21109e-166 -2.05321e-166 0)
(7.1529e-161 3.86451e-161 0)
(0 0 0)
(0 0 0)
(0 0 0)
(0 0 0)
(0 0 0)
(0 0 0)
(0 0 0)
(0 0 0)
(0 0 0)
(0 0 0)
(0 0 0)
(-1.44465e-318 1.08081e-318 0)
(-2.41355e-313 1.9557e-313 0)
(-2.09153e-308 1.87021e-308 0)
(-1.02285e-303 1.043e-303 0)
(-2.8602e-299 3.38701e-299 0)
(-4.6927e-295 6.57225e-295 0)
(-4.67745e-291 7.84786e-291 0)
(-2.93273e-287 5.94149e-287 0)
(-1.19742e-283 2.96802e-283 0)
(-3.26485e-280 9.98705e-280 0)
(-6.08556e-277 2.34119e-276 0)
(-7.85457e-274 3.86726e-273 0)
(-7.07647e-271 4.62839e-270 0)
(-4.6127e-268 4.02971e-267 0)
(-2.03495e-265 2.53759e-264 0)
(-7.38727e-263 1.18519e-261 0)
(-1.68457e-260 3.61186e-259 0)
(-2.6885e-258 7.59503e-257 0)
(-2.71548e-256 9.88845e-255 0)
(-1.27168e-254 7.51019e-253 0)
(-8.1683e-254 1.04371e-251 0)
(-2.07242e-249 -6.01558e-247 0)
(-1.14021e-247 -7.49975e-246 0)
(8.31854e-244 3.02773e-242 0)
(3.53085e-242 8.86251e-241 0)
(-2.94104e-237 -5.62761e-236 0)
(-4.45394e-236 -6.88845e-235 0)
(1.17066e-232 1.5183e-231 0)
(3.78607e-231 4.22558e-230 0)
(-2.86072e-226 -2.80018e-225 0)
(-5.84068e-225 -5.08612e-224 0)
(3.23615e-220 2.53508e-219 0)
(5.38226e-219 3.82702e-218 0)
(-2.2756e-214 -1.47959e-213 0)
(-2.79069e-213 -1.66945e-212 0)
(7.7241e-209 4.27336e-208 0)
(9.10724e-208 4.68026e-207 0)
(2.0208e-207 9.68356e-207 0)
(-3.44954e-204 -1.54641e-203 0)
(-6.27812e-202 -2.64062e-201 0)
(-1.21259e-197 -4.79737e-197 0)
(-7.11438e-197 -2.65345e-196 0)
(5.40207e-193 1.90322e-192 0)
(2.37711e-191 7.92536e-191 0)
(4.43336e-186 1.40107e-185 0)
(1.41148e-184 4.23453e-184 0)
(-3.16071e-182 -9.01358e-182 0)
(-7.28751e-180 -1.97779e-179 0)
(-3.72989e-177 -9.64322e-177 0)
(-1.90645e-176 -4.69936e-176 0)
(1.30213e-173 3.06231e-173 0)
(1.30655e-172 2.93317e-172 0)
(-2.5712e-168 -5.51279e-168 0)
(-4.11914e-166 -8.43811e-166 0)
(-1.32074e-163 -2.58614e-163 0)
(-8.40875e-163 -1.57451e-162 0)
(4.20498e-158 7.53236e-158 0)
(1.29178e-156 2.21421e-156 0)
(6.05184e-156 9.92684e-156 0)
(1.18332e-155 1.85723e-155 0)
(1.33654e-155 2.00673e-155 0)
(1.15959e-155 1.66521e-155 0)
(5.39126e-156 7.40362e-156 0)
(-5.6542e-157 -7.42411e-157 0)
(-5.30498e-156 -6.65773e-156 0)
(-9.91793e-156 -1.18895e-155 0)
(-1.3538e-155 -1.54898e-155 0)
(-1.42157e-155 -1.55116e-155 0)
(-1.2188e-155 -1.26735e-155 0)
(-7.12641e-156 -7.05581e-156 0)
(-2.05453e-156 -1.93467e-156 0)
(5.60917e-160 5.01638e-160 0)
(5.98392e-160 5.07494e-160 0)
(5.74023e-160 4.60987e-160 0)
(4.05263e-160 3.07704e-160 0)
(1.68967e-160 1.2109e-160 0)
(1.02312e-161 6.9079e-162 0)
(-5.68935e-167 -3.61155e-167 0)
(-1.53111e-166 -9.12541e-167 0)
(-1.76341e-166 -9.8664e-167 0)
(-2.09384e-166 -1.09792e-166 0)
(-2.56749e-166 -1.25055e-166 0)
(-3.37886e-166 -1.46365e-166 0)
(4.03782e-161 1.23155e-161 0)
(0 0 0)
(0 0 0)
(0 0 0)
(0 0 0)
(0 0 0)
(0 0 0)
(0 0 0)
(0 0 0)
(0 0 0)
(0 0 0)
(0 0 0)
(1.79357e-318 -1.34619e-318 0)
(2.63795e-313 -2.14656e-313 0)
(2.10836e-308 -1.89532e-308 0)
(9.86018e-304 -1.01198e-303 0)
(2.69959e-299 -3.22193e-299 0)
(4.37223e-295 -6.1817e-295 0)
(4.28014e-291 -7.26454e-291 0)
(2.60428e-287 -5.35239e-287 0)
(1.01968e-283 -2.57364e-283 0)
(2.65761e-280 -8.32193e-280 0)
(4.78507e-277 -1.89755e-276 0)
(6.13189e-274 -3.14571e-273 0)
(5.74192e-271 -3.96031e-270 0)
(4.0666e-268 -3.8397e-267 0)
(2.06555e-265 -2.84685e-264 0)
(8.56043e-263 -1.61566e-261 0)
(2.26908e-260 -6.13242e-259 0)
(4.08256e-258 -1.62832e-256 0)
(4.65019e-256 -3.00637e-254 0)
(2.37616e-254 -4.49568e-252 0)
(-7.94498e-253 -1.85563e-250 0)
(5.75921e-247 3.7534e-245 0)
(3.19987e-244 1.20314e-242 0)
(2.19877e-243 5.67882e-242 0)
(-3.90258e-239 -7.65913e-238 0)
(-1.31488e-235 -2.07822e-234 0)
(-3.00157e-234 -3.96737e-233 0)
(3.17664e-229 3.60319e-228 0)
(1.25917e-227 1.25e-226 0)
(-2.74238e-225 -2.41856e-224 0)
(-1.27344e-223 -1.0092e-222 0)
(1.51264e-218 1.08706e-217 0)
(2.98152e-217 1.95778e-216 0)
(-6.92411e-213 -4.18071e-212 0)
(-1.09907e-211 -6.13437e-211 0)
(6.87303e-209 3.562e-208 0)
(1.13398e-207 5.47793e-207 0)
(6.62764e-207 2.99439e-206 0)
(-2.2022e-202 -9.33286e-202 0)
(-3.86695e-201 -1.54118e-200 0)
(1.15688e-196 4.34588e-196 0)
(1.48928e-195 5.28369e-195 0)
(-2.96264e-191 -9.94464e-191 0)
(-3.97811e-190 -1.26546e-189 0)
(4.24948e-185 1.28297e-184 0)
(1.29864e-183 3.72627e-183 0)
(-2.6591e-182 -7.26037e-182 0)
(-4.80711e-179 -1.25029e-178 0)
(-4.5385e-177 -1.12548e-176 0)
(2.90689e-177 6.87812e-177 0)
(1.2206e-173 2.75722e-173 0)
(-8.04826e-173 -1.73636e-172 0)
(-2.56138e-168 -5.2795e-168 0)
(-4.03859e-166 -7.95532e-166 0)
(-1.32175e-163 -2.48904e-163 0)
(-8.54794e-163 -1.53941e-162 0)
(4.18995e-158 7.2188e-158 0)
(1.29202e-156 2.12998e-156 0)
(6.10546e-156 9.63069e-156 0)
(1.20424e-155 1.81704e-155 0)
(1.36631e-155 1.97123e-155 0)
(1.19131e-155 1.64283e-155 0)
(5.61899e-156 7.40439e-156 0)
(-4.81282e-157 -6.05858e-157 0)
(-5.33346e-156 -6.41053e-156 0)
(-1.01191e-155 -1.16027e-155 0)
(-1.37472e-155 -1.50201e-155 0)
(-1.44204e-155 -1.49965e-155 0)
(-1.23887e-155 -1.22496e-155 0)
(-7.29347e-156 -6.8479e-156 0)
(-2.1452e-156 -1.90922e-156 0)
(-1.53415e-159 -1.29146e-159 0)
(4.96941e-160 3.94738e-160 0)
(5.78692e-160 4.32585e-160 0)
(4.15058e-160 2.90996e-160 0)
(1.75813e-160 1.15159e-160 0)
(1.15436e-161 7.03167e-162 0)
(-4.7368e-167 -2.66467e-167 0)
(-1.54923e-166 -7.97234e-167 0)
(-1.80611e-166 -8.40955e-167 0)
(-2.09796e-166 -8.67369e-167 0)
(-2.51248e-166 -8.88114e-167 0)
(-2.59412e-163 -7.1964e-164 0)
(5.31556e-162 8.29538e-163 0)
(0 0 0)
(0 0 0)
(0 0 0)
(0 0 0)
(0 0 0)
(0 0 0)
(0 0 0)
(0 0 0)
(0 0 0)
(0 0 0)
(0 0 0)
(1.91177e-317 -1.43954e-317 0)
(2.77818e-312 -2.2702e-312 0)
(2.32265e-307 -2.0991e-307 0)
(1.08994e-302 -1.12591e-302 0)
(2.98598e-298 -3.59176e-298 0)
(4.8729e-294 -6.95533e-294 0)
(4.83325e-290 -8.29896e-290 0)
(2.99657e-286 -6.24855e-286 0)
(1.20039e-282 -3.08585e-282 0)
(3.18386e-279 -1.02106e-278 0)
(5.75037e-276 -2.35253e-275 0)
(7.15499e-273 -3.83088e-272 0)
(6.26333e-270 -4.56974e-269 0)
(3.91316e-267 -4.01753e-266 0)
(1.70598e-264 -2.6379e-263 0)
(5.74656e-262 -1.30961e-260 0)
(1.27736e-259 -4.69483e-258 0)
(1.9424e-257 -1.30636e-255 0)
(1.18489e-255 -3.05996e-253 0)
(-4.36651e-253 -6.92321e-251 0)
(-1.97756e-251 -1.23356e-249 0)
(1.687e-246 6.26042e-245 0)
(2.95003e-242 7.77684e-241 0)
(9.38894e-241 1.87866e-239 0)
(-6.34045e-240 -1.02208e-238 0)
(-3.19453e-234 -4.30119e-233 0)
(-3.82937e-233 -4.41743e-232 0)
(2.03052e-228 2.04591e-227 0)
(3.91951e-227 3.5034e-226 0)
(-6.74931e-224 -5.4159e-223 0)
(-7.8108e-223 -5.67885e-222 0)
(7.57721e-218 5.02949e-217 0)
(1.06831e-216 6.51597e-216 0)
(-1.3652e-212 -7.69367e-212 0)
(-5.68069e-211 -2.97151e-210 0)
(3.74703e-209 1.82636e-208 0)
(2.10063e-206 9.57285e-206 0)
(2.84006e-205 1.21372e-204 0)
(-6.37802e-201 -2.56282e-200 0)
(-1.07183e-199 -4.05878e-199 0)
(9.95032e-196 3.55806e-195 0)
(1.13549e-194 3.84092e-194 0)
(-2.3156e-190 -7.42142e-190 0)
(-2.38171e-189 -7.24313e-189 0)
(1.12704e-184 3.25677e-184 0)
(2.82779e-183 7.7741e-183 0)
(-4.20319e-182 -1.10061e-181 0)
(-3.44781e-178 -8.60748e-178 0)
(-6.58994e-177 -1.56982e-176 0)
(1.77057e-175 4.02714e-175 0)
(3.05211e-173 6.6312e-173 0)
(-9.49587e-173 -1.97133e-172 0)
(-2.3495e-168 -4.66139e-168 0)
(-3.44107e-166 -6.52561e-166 0)
(-1.29932e-163 -2.35578e-163 0)
(-8.70415e-163 -1.50928e-162 0)
(3.9476e-158 6.54835e-158 0)
(1.26293e-156 2.00447e-156 0)
(6.26209e-156 9.50821e-156 0)
(1.26621e-155 1.83846e-155 0)
(1.57246e-155 2.18193e-155 0)
(1.4479e-155 1.91904e-155 0)
(8.3557e-156 1.05742e-155 0)
(1.556e-156 1.87941e-156 0)
(-4.33325e-156 -4.99191e-156 0)
(-9.95981e-156 -1.09306e-155 0)
(-1.44943e-155 -1.5132e-155 0)
(-1.49582e-155 -1.4834e-155 0)
(-1.26817e-155 -1.19293e-155 0)
(-7.48694e-156 -6.66861e-156 0)
(-2.24278e-156 -1.88694e-156 0)
(-4.02435e-159 -3.18875e-159 0)
(3.5793e-160 2.66228e-160 0)
(5.74768e-160 3.99691e-160 0)
(4.27847e-160 2.76617e-160 0)
(1.92067e-160 1.14693e-160 0)
(1.69668e-161 9.28734e-162 0)
(2.8303e-168 1.40281e-168 0)
(-1.60779e-166 -7.07245e-167 0)
(-1.4375e-166 -5.46412e-167 0)
(-1.9118e-166 -5.99924e-167 0)
(-5.4893e-163 -1.2996e-163 0)
(1.89697e-148 2.75025e-149 0)
(-5.4641e-142 -2.35431e-143 0)
(0 0 0)
(0 0 0)
(0 0 0)
(0 0 0)
(0 0 0)
(0 0 0)
(0 0 0)
(0 0 0)
(0 0 0)
(0 0 0)
(0 0 0)
(-2.51639e-315 1.90093e-315 0)
(-5.25394e-310 4.31137e-310 0)
(-4.89546e-306 4.44784e-306 0)
(6.95041e-302 -7.22653e-302 0)
(3.4963e-297 -4.2387e-297 0)
(6.77568e-293 -9.76379e-293 0)
(7.37153e-289 -1.28056e-288 0)
(4.83199e-285 -1.02242e-284 0)
(1.99723e-281 -5.23061e-281 0)
(5.35302e-278 -1.75895e-277 0)
(9.58543e-275 -4.04882e-274 0)
(1.15432e-271 -6.46058e-271 0)
(9.53603e-269 -7.38161e-268 0)
(5.36384e-266 -6.02403e-265 0)
(2.00227e-263 -3.52602e-262 0)
(5.14455e-261 -1.46128e-259 0)
(7.23045e-259 -4.08881e-257 0)
(3.94189e-257 -8.04447e-255 0)
(-1.01792e-254 -1.32901e-252 0)
(-9.11115e-253 -5.06839e-251 0)
(1.88763e-250 6.91299e-249 0)
(3.41502e-246 8.92098e-245 0)
(1.4438e-241 2.92552e-240 0)
(1.21104e-240 1.97623e-239 0)
(-3.7665e-236 -5.14881e-235 0)
(-7.62653e-234 -8.93016e-233 0)
(-1.6706e-232 -1.70625e-231 0)
(6.75324e-228 6.1097e-227 0)
(7.60136e-227 6.16833e-226 0)
(-6.91481e-223 -5.08082e-222 0)
(-4.11698e-222 -2.75969e-221 0)
(8.8501e-218 5.44714e-217 0)
(1.12921e-216 6.41791e-216 0)
(-9.93455e-213 -5.23891e-212 0)
(-1.51684e-210 -7.45115e-210 0)
(1.69134e-210 7.76549e-210 0)
(3.36456e-206 1.44819e-205 0)
(-7.47592e-203 -3.02484e-202 0)
(-1.99783e-200 -7.61645e-200 0)
(4.94836e-198 1.78117e-197 0)
(6.35356e-195 2.16311e-194 0)
(6.94749e-194 2.24075e-193 0)
(-1.73864e-189 -5.31987e-189 0)
(-1.83104e-188 -5.32226e-188 0)
(3.46558e-184 9.5814e-184 0)
(4.69827e-183 1.23694e-182 0)
(-9.24661e-182 -2.32065e-181 0)
(-1.78611e-177 -4.2771e-177 0)
(-1.30418e-176 -2.98207e-176 0)
(5.65871e-175 1.23616e-174 0)
(1.56755e-172 3.2727e-172 0)
(2.06736e-171 4.12572e-171 0)
(-1.83113e-168 -3.49321e-168 0)
(-2.23229e-166 -4.07095e-166 0)
(-1.20517e-163 -2.10133e-163 0)
(-9.15407e-163 -1.52642e-162 0)
(3.00763e-158 4.79749e-158 0)
(1.20484e-156 1.83862e-156 0)
(7.17885e-156 1.04782e-155 0)
(1.8763e-155 2.6178e-155 0)
(3.93305e-155 5.24114e-155 0)
(6.46324e-155 8.22077e-155 0)
(7.99557e-155 9.70209e-155 0)
(7.35254e-155 8.50727e-155 0)
(4.88343e-155 5.38301e-155 0)
(1.71969e-155 1.80328e-155 0)
(-8.53773e-156 -8.50148e-156 0)
(-1.68097e-155 -1.58665e-155 0)
(-1.5308e-155 -1.36721e-155 0)
(-9.90616e-156 -8.35262e-156 0)
(-4.06034e-156 -3.22186e-156 0)
(-5.61929e-157 -4.18019e-157 0)
(-7.03203e-157 -4.88362e-157 0)
(-5.04309e-157 -3.25204e-157 0)
(-9.87128e-158 -5.8632e-158 0)
(4.75887e-161 2.57721e-161 0)
(1.04664e-161 5.10968e-162 0)
(2.23665e-162 9.66767e-163 0)
(4.06974e-163 1.50707e-163 0)
(-3.01095e-163 -9.07785e-164 0)
(3.97643e-162 8.88007e-163 0)
(-4.29162e-161 -5.59115e-162 0)
(1.21993e-148 2.43964e-150 0)
(-1.70438e-140 1.33902e-141 0)
(0 0 0)
(0 0 0)
(0 0 0)
(0 0 0)
(0 0 0)
(0 0 0)
(0 0 0)
(0 0 0)
(0 0 0)
(0 0 0)
(0 0 0)
(3.77109e-315 -2.85794e-315 0)
(5.92471e-310 -4.88227e-310 0)
(5.25874e-305 -4.80334e-305 0)
(2.58127e-300 -2.70126e-300 0)
(7.06567e-296 -8.63345e-296 0)
(1.10423e-291 -1.60645e-291 0)
(1.0192e-287 -1.79137e-287 0)
(5.74321e-284 -1.23326e-283 0)
(2.05451e-280 -5.48277e-280 0)
(4.80212e-277 -1.61746e-276 0)
(7.60379e-274 -3.31859e-273 0)
(8.25619e-271 -4.83782e-270 0)
(6.34056e-268 -5.22265e-267 0)
(3.42162e-265 -4.23189e-264 0)
(1.30402e-262 -2.66486e-261 0)
(3.64607e-260 -1.36223e-258 0)
(5.16728e-258 -6.34946e-256 0)
(-1.25277e-255 -2.40549e-253 0)
(-1.51569e-252 -7.96853e-251 0)
(-8.22124e-250 -2.8101e-248 0)
(-2.74935e-248 -7.21233e-247 0)
(2.75809e-243 5.57587e-242 0)
(1.48613e-241 2.45064e-240 0)
(-1.37301e-237 -1.89862e-236 0)
(-6.51001e-236 -7.74559e-235 0)
(-2.91361e-234 -3.02326e-233 0)
(4.79457e-230 4.40064e-229 0)
(7.3346e-228 6.03259e-227 0)
(-4.4967e-226 -3.34767e-225 0)
(-1.71022e-222 -1.16103e-221 0)
(-7.22973e-222 -4.5035e-221 0)
(5.14612e-218 2.95803e-217 0)
(5.29703e-217 2.82375e-216 0)
(-2.24189e-213 -1.11296e-212 0)
(-2.3759e-210 -1.10215e-209 0)
(-8.36375e-209 -3.6362e-208 0)
(-2.49115e-204 -1.01777e-203 0)
(-2.20465e-202 -8.48515e-202 0)
(1.55162e-199 5.63758e-199 0)
(4.28197e-197 1.4714e-196 0)
(2.09229e-194 6.81036e-194 0)
(3.22659e-193 9.96226e-193 0)
(-1.00884e-188 -2.95841e-188 0)
(-7.28891e-188 -2.03262e-187 0)
(5.76969e-184 1.53179e-183 0)
(2.02976e-182 5.13588e-182 0)
(-6.11899e-182 -1.47706e-181 0)
(-3.24137e-177 -7.47074e-177 0)
(-4.91789e-176 -1.08299e-175 0)
(5.4053e-175 1.13785e-174 0)
(3.08126e-172 6.2018e-172 0)
(1.52153e-170 2.92828e-170 0)
(-1.09512e-168 -2.01512e-168 0)
(-1.0412e-166 -1.83168e-166 0)
(-9.54267e-164 -1.60502e-163 0)
(-1.37659e-162 -2.21411e-162 0)
(1.56454e-158 2.40701e-158 0)
(1.04185e-156 1.53324e-156 0)
(1.27871e-155 1.79947e-155 0)
(6.63175e-155 8.91709e-155 0)
(3.30576e-154 4.24293e-154 0)
(8.42534e-154 1.03137e-153 0)
(1.47336e-153 1.71917e-153 0)
(1.83503e-153 2.03971e-153 0)
(1.64659e-153 1.74162e-153 0)
(3.20896e-152 3.22404e-152 0)
(1.3929e-151 1.32647e-151 0)
(1.85539e-151 1.67128e-151 0)
(1.78848e-151 1.52057e-151 0)
(1.35231e-151 1.08212e-151 0)
(8.23304e-152 6.17607e-152 0)
(3.73338e-152 2.61295e-152 0)
(5.76282e-153 3.74346e-153 0)
(2.4838e-156 1.48753e-156 0)
(-4.76618e-158 -2.60422e-158 0)
(-2.7585e-158 -1.35507e-158 0)
(-1.74207e-158 -7.5641e-159 0)
(-7.31713e-159 -2.73938e-159 0)
(-1.42815e-159 -4.39035e-160 0)
(-9.52642e-164 -2.19584e-164 0)
(-8.78378e-161 -1.24972e-161 0)
(9.70439e-152 3.12434e-153 0)
(1.41159e-147 -1.52208e-148 0)
(-6.94689e-141 1.81685e-141 0)
(4.3853e-57 -2.65114e-57 0)
(-5.72611e-58 4.83343e-58 0)
(-9.17298e-53 9.20359e-53 0)
(-2.33929e-44 2.76405e-44 0)
(-7.91923e-39 1.14304e-38 0)
(-5.77134e-35 1.06103e-34 0)
(-5.14097e-32 1.2998e-31 0)
(-1.11912e-29 4.57822e-29 0)
(-6.45949e-28 7.58826e-27 0)
(6.94702e-26 7.76062e-25 0)
(1.73268e-23 5.94204e-23 0)
(2.14922e-21 3.93532e-21 0)
(2.25057e-19 2.49063e-19 0)
(2.37235e-17 1.59216e-17 0)
(2.54267e-15 9.14026e-16 0)
(2.5438e-13 2.66308e-14 0)
(1.96789e-11 -2.47826e-12 0)
(1.02603e-09 -3.61688e-10 0)
(3.49707e-08 -2.06813e-08 0)
(2.47211e-57 -8.94369e-58 0)
(-4.00335e-58 2.33219e-58 0)
(-1.03993e-52 7.82105e-53 0)
(-2.60834e-44 2.4224e-44 0)
(-8.73059e-39 1.01092e-38 0)
(-6.46489e-35 9.58326e-35 0)
(-6.05725e-32 1.20103e-31 0)
(-1.45713e-29 4.30889e-29 0)
(-1.21566e-27 7.35084e-27 0)
(1.4198e-26 8.03179e-25 0)
(1.63507e-23 7.31155e-23 0)
(3.29955e-21 6.85968e-21 0)
(5.78854e-19 6.88178e-19 0)
(8.6816e-17 6.06704e-17 0)
(1.06973e-14 3.89085e-15 0)
(9.64173e-13 9.33634e-14 0)
(6.03187e-11 -8.43311e-12 0)
(2.54524e-09 -9.36904e-10 0)
(7.11049e-08 -4.30849e-08 0)
(8.37874e-58 -1.70065e-58 0)
(1.84922e-58 -7.26642e-59 0)
(-1.13033e-52 6.27319e-53 0)
(-2.97588e-44 2.17965e-44 0)
(-9.70884e-39 9.10337e-39 0)
(-7.28525e-35 8.76561e-35 0)
(-7.33303e-32 1.164e-31 0)
(-2.02852e-29 4.60174e-29 0)
(-2.33997e-27 9.25231e-27 0)
(-8.36618e-26 1.36134e-24 0)
(2.81923e-23 1.8793e-22 0)
(9.83005e-21 2.38453e-20 0)
(1.98877e-18 2.56187e-18 0)
(2.78971e-16 2.03157e-16 0)
(2.98987e-14 1.09001e-14 0)
(2.27254e-12 1.9037e-13 0)
(1.22004e-10 -1.94276e-11 0)
(4.46034e-09 -1.73799e-09 0)
(1.08074e-07 -6.78345e-08 0)
(3.79704e-58 -2.98008e-59 0)
(3.29522e-58 -7.76121e-59 0)
(-1.0545e-52 4.14856e-53 0)
(-3.11155e-44 1.76527e-44 0)
(-1.11122e-38 8.38621e-39 0)
(-8.76245e-35 8.56753e-35 0)
(-1.02445e-31 1.32163e-31 0)
(-3.84211e-29 6.92416e-29 0)
(-6.84229e-27 1.94771e-26 0)
(-5.89279e-25 3.90566e-24 0)
(4.48167e-23 6.48705e-22 0)
(2.89202e-20 8.53133e-20 0)
(6.02666e-18 8.49759e-18 0)
(8.12188e-16 6.15228e-16 0)
(7.74499e-14 2.78362e-14 0)
(5.1735e-12 3.28204e-13 0)
(2.44895e-10 -4.5541e-11 0)
(7.81043e-09 -3.27252e-09 0)
(1.65409e-07 -1.08918e-07 0)
(1.91655e-58 1.09727e-59 0)
(1.99638e-58 -1.76344e-59 0)
(-6.77912e-53 1.71289e-53 0)
(-2.8302e-44 1.18821e-44 0)
(-1.31072e-38 7.79003e-39 0)
(-1.27411e-34 1.0099e-34 0)
(-1.93912e-31 2.04844e-31 0)
(-1.05203e-28 1.52656e-28 0)
(-2.51826e-26 5.39344e-26 0)
(-3.18237e-24 1.25627e-23 0)
(-4.45161e-23 2.18694e-21 0)
(7.52674e-20 2.88777e-19 0)
(1.69041e-17 2.6358e-17 0)
(2.22323e-15 1.7375e-15 0)
(1.86872e-13 6.4161e-14 0)
(1.13405e-11 3.63085e-13 0)
(4.79311e-10 -1.06996e-10 0)
(1.32586e-08 -6.08741e-09 0)
(2.47601e-07 -1.73608e-07 0)
(8.5619e-59 2.15816e-59 0)
(8.98514e-59 5.3953e-60 0)
(-3.33717e-53 4.16561e-54 0)
(-2.33893e-44 6.79145e-45 0)
(-1.66659e-38 7.60898e-39 0)
(-2.41851e-34 1.54737e-34 0)
(-4.2327e-31 3.66814e-31 0)
(-2.97661e-28 3.49543e-28 0)
(-9.11977e-26 1.50901e-25 0)
(-1.48505e-23 4.00286e-23 0)
(-8.66266e-22 7.16237e-21 0)
(1.59222e-19 9.22374e-19 0)
(4.39911e-17 7.77306e-17 0)
(5.57941e-15 4.48934e-15 0)
(4.30562e-13 1.3679e-13 0)
(2.44684e-11 -2.33e-13 0)
(9.12174e-10 -2.46656e-10 0)
(2.17579e-08 -1.10905e-08 0)
(3.62937e-07 -2.74151e-07 0)
(7.00117e-07 -6.00387e-07 0)
(9.56482e-06 -1.12023e-05 0)
(9.08755e-05 -0.00014199 0)
(0.000510644 -0.00105912 0)
(0.000913581 -0.00254122 0)
(0.000668077 -0.00256359 0)
(0.000252695 -0.00141492 0)
(1.819e-05 -0.000166465 0)
(-1.75671e-09 3.51706e-08 0)
(1.82246e-11 1.43516e-08 0)
(1.63952e-11 3.5748e-10 0)
(-1.79923e-14 -2.11556e-13 0)
(-9.36968e-15 -7.82062e-14 0)
(-1.48562e-13 -9.84446e-13 0)
(-2.17908e-12 -1.21781e-11 0)
(-2.35395e-11 -1.15205e-10 0)
(-1.94263e-10 -8.54125e-10 0)
(-1.32244e-09 -5.31977e-09 0)
(-7.80719e-09 -2.91253e-08 0)
(-4.04916e-08 -1.41525e-07 0)
(-1.87422e-07 -6.18554e-07 0)
(-7.82557e-07 -2.45357e-06 0)
(-2.97081e-06 -8.89081e-06 0)
(-1.03688e-05 -2.97302e-05 0)
(-3.33466e-05 -9.18733e-05 0)
(-0.000100719 -0.000267244 0)
(-0.000288206 -0.000737777 0)
(-0.00078555 -0.00194262 0)
(-0.00204766 -0.00489629 0)
(-0.00511818 -0.0118404 0)
(-0.0122826 -0.0274972 0)
(-0.0283387 -0.0613886 0)
(-0.0630805 -0.132168 0)
(-0.136251 -0.275899 0)
(-0.287058 -0.561096 0)
(-0.590825 -1.11292 0)
(-1.18538 -2.14718 0)
(-2.30946 -4.01214 0)
(-4.34765 -7.22224 0)
(-7.85311 -12.4362 0)
(-13.4875 -20.3114 0)
(-21.8124 -31.2055 0)
(-32.9143 -44.7955 0)
(-46.0124 -59.8409 0)
(-59.0296 -73.897 0)
(-71.1172 -86.4166 0)
(-81.5202 -97.0013 0)
(-89.7555 -105.492 0)
(-95.725 -112.031 0)
(-99.5725 -116.895 0)
(-101.576 -120.407 0)
(-102.044 -122.862 0)
(-101.274 -124.512 0)
(-99.53 -125.565 0)
(-97.0409 -126.186 0)
(-94.0223 -126.54 0)
(-90.6702 -126.795 0)
(-87.1327 -127.102 0)
(-83.4392 -127.467 0)
(-79.6099 -127.893 0)
(-75.6611 -128.383 0)
(-71.6102 -128.943 0)
(-67.4673 -129.574 0)
(-63.2459 -130.284 0)
(-58.9575 -131.074 0)
(-54.6108 -131.951 0)
(-50.2172 -132.923 0)
(-45.7864 -133.992 0)
(-41.3285 -135.166 0)
(-36.857 -136.451 0)
(-32.3815 -137.86 0)
(-27.9158 -139.397 0)
(-23.475 -141.077 0)
(-19.0755 -142.911 0)
(-14.7367 -144.908 0)
(-10.4777 -147.087 0)
(-6.32507 -149.462 0)
(-2.30871 -152.05 0)
(1.53602 -154.87 0)
(5.16541 -157.94 0)
(8.5309 -161.284 0)
(11.5694 -164.92 0)
(14.206 -168.871 0)
(16.3498 -173.153 0)
(17.8894 -177.78 0)
(18.6908 -182.755 0)
(18.5905 -188.067 0)
(17.392 -193.67 0)
(14.8618 -199.447 0)
(10.7289 -205.059 0)
(4.7269 -210.121 0)
(-3.35384 -214.095 0)
(-13.5794 -216.411 0)
(-25.7919 -216.527 0)
(-39.5011 -213.89 0)
(-53.8168 -208.017 0)
(-67.1884 -197.785 0)
(1.20418e-06 -1.04612e-06 0)
(1.42186e-05 -1.67248e-05 0)
(0.00011852 -0.000184398 0)
(0.000517482 -0.00105829 0)
(0.000700555 -0.00189847 0)
(0.000469821 -0.00172934 0)
(0.000143622 -0.000754215 0)
(6.13714e-06 -5.05647e-05 0)
(-3.48544e-09 5.61434e-08 0)
(-1.98954e-10 1.84106e-08 0)
(3.37203e-12 9.94878e-11 0)
(-2.02183e-14 -2.76e-13 0)
(-9.21018e-16 -8.50538e-15 0)
(1.46955e-19 1.05146e-18 0)
(1.82154e-20 1.08267e-19 0)
(6.82108e-20 3.51343e-19 0)
(1.86234e-17 8.55152e-17 0)
(3.02622e-16 1.2639e-15 0)
(9.76008e-16 3.76277e-15 0)
(-1.40076e-15 -5.04051e-15 0)
(-2.20353e-14 -7.46362e-14 0)
(-2.96435e-13 -9.51279e-13 0)
(-3.33346e-12 -1.01864e-11 0)
(-3.07051e-11 -8.97025e-11 0)
(-2.37843e-10 -6.66352e-10 0)
(-1.64581e-09 -4.43269e-09 0)
(-1.0663e-08 -2.76601e-08 0)
(-6.57973e-08 -1.64619e-07 0)
(-3.82836e-07 -9.24733e-07 0)
(-2.02726e-06 -4.73064e-06 0)
(-9.84498e-06 -2.22002e-05 0)
(-4.34224e-05 -9.46155e-05 0)
(-0.000172229 -0.000362475 0)
(-0.000629618 -0.00127886 0)
(-0.00220655 -0.00432015 0)
(-0.00756329 -0.0142492 0)
(-0.0247418 -0.044752 0)
(-0.0764144 -0.132314 0)
(-0.222353 -0.367296 0)
(-0.606037 -0.951298 0)
(-1.53257 -2.27706 0)
(-3.55443 -4.98263 0)
(-7.46766 -9.86196 0)
(-14.2468 -17.7495 0)
(-24.7338 -29.2249 0)
(-37.1942 -42.0253 0)
(-50.074 -54.6341 0)
(-62.1751 -66.1906 0)
(-72.6046 -76.1909 0)
(-80.9173 -84.5028 0)
(-87.0243 -91.2183 0)
(-91.07 -96.5431 0)
(-93.3118 -100.716 0)
(-94.0316 -103.953 0)
(-93.4984 -106.431 0)
(-91.9717 -108.315 0)
(-89.6592 -109.721 0)
(-86.7243 -110.737 0)
(-83.3711 -111.529 0)
(-79.734 -112.213 0)
(-75.9002 -112.864 0)
(-71.9234 -113.525 0)
(-67.834 -114.223 0)
(-63.6618 -114.985 0)
(-59.4171 -115.808 0)
(-55.1174 -116.714 0)
(-50.7743 -117.708 0)
(-46.3972 -118.795 0)
(-41.9962 -119.978 0)
(-37.5858 -121.267 0)
(-33.1759 -122.672 0)
(-28.7811 -124.2 0)
(-24.4169 -125.86 0)
(-20.1004 -127.665 0)
(-15.8515 -129.623 0)
(-11.6899 -131.75 0)
(-7.64287 -134.057 0)
(-3.74102 -136.561 0)
(-0.0201284 -139.274 0)
(3.4756 -142.21 0)
(6.69717 -145.386 0)
(9.58174 -148.811 0)
(12.0547 -152.492 0)
(14.0262 -156.422 0)
(15.3858 -160.568 0)
(16.003 -164.875 0)
(15.7204 -169.218 0)
(14.3585 -173.399 0)
(11.7227 -177.113 0)
(7.64066 -180.08 0)
(1.97997 -181.834 0)
(-5.27919 -181.824 0)
(-13.975 -179.714 0)
(-23.7321 -175.218 0)
(-33.9082 -168.064 0)
(-43.5799 -158.043 0)
(-51.0599 -143.527 0)
(1.63413e-06 -1.45338e-06 0)
(1.75747e-05 -2.09771e-05 0)
(0.000134763 -0.000210915 0)
(0.000492356 -0.00100325 0)
(0.000581727 -0.00155366 0)
(0.000377618 -0.00135204 0)
(0.00010729 -0.000538364 0)
(3.24034e-06 -2.47494e-05 0)
(-6.32787e-09 8.78188e-08 0)
(-4.56235e-10 2.16614e-08 0)
(4.4932e-13 1.91447e-11 0)
(-1.72469e-14 -2.74685e-13 0)
(-5.8565e-16 -5.98109e-15 0)
(9.27396e-20 7.15459e-19 0)
(1.34634e-20 8.49755e-20 0)
(5.67293e-21 3.07089e-20 0)
(1.53535e-19 7.35367e-19 0)
(1.11216e-17 4.81747e-17 0)
(1.11826e-16 4.4514e-16 0)
(-9.91588e-17 -3.67092e-16 0)
(-1.67628e-15 -5.82372e-15 0)
(-2.34679e-14 -7.70456e-14 0)
(-2.75973e-13 -8.60783e-13 0)
(-2.64417e-12 -7.86849e-12 0)
(-2.11785e-11 -6.03253e-11 0)
(-1.51388e-10 -4.13822e-10 0)
(-1.0182e-09 -2.6763e-09 0)
(-6.5971e-09 -1.66988e-08 0)
(-4.0972e-08 -9.99814e-08 0)
(-2.30404e-07 -5.42409e-07 0)
(-1.18628e-06 -2.69512e-06 0)
(-5.53619e-06 -1.2138e-05 0)
(-2.30855e-05 -4.88265e-05 0)
(-8.7908e-05 -0.000179224 0)
(-0.000319621 -0.000627403 0)
(-0.00114005 -0.00215116 0)
(-0.0039874 -0.00721678 0)
(-0.0132402 -0.0229239 0)
(-0.0414067 -0.0683599 0)
(-0.122567 -0.192238 0)
(-0.344294 -0.510992 0)
(-0.917665 -1.28388 0)
(-2.30768 -3.03411 0)
(-5.17283 -6.38137 0)
(-10.3289 -11.9664 0)
(-18.2698 -19.9634 0)
(-28.3177 -29.3996 0)
(-39.579 -39.413 0)
(-50.824 -49.0658 0)
(-61.1141 -57.8333 0)
(-69.7754 -65.4197 0)
(-76.5264 -71.7922 0)
(-81.3404 -77.0394 0)
(-84.3574 -81.3058 0)
(-85.7987 -84.746 0)
(-85.9225 -87.5141 0)
(-84.9904 -89.7556 0)
(-83.2307 -91.5959 0)
(-80.8333 -93.1369 0)
(-77.9464 -94.4609 0)
(-74.6845 -95.6334 0)
(-71.1359 -96.7049 0)
(-67.3684 -97.7215 0)
(-63.4361 -98.7187 0)
(-59.3823 -99.7284 0)
(-55.2313 -100.767 0)
(-51.0095 -101.853 0)
(-46.74 -103.007 0)
(-42.4396 -104.24 0)
(-38.1241 -105.56 0)
(-33.8072 -106.98 0)
(-29.5041 -108.503 0)
(-25.233 -110.143 0)
(-21.0123 -111.906 0)
(-16.8638 -113.802 0)
(-12.8081 -115.843 0)
(-8.87361 -118.033 0)
(-5.09263 -120.381 0)
(-1.50235 -122.898 0)
(1.85216 -125.586 0)
(4.92081 -128.445 0)
(7.64063 -131.476 0)
(9.93671 -134.649 0)
(11.7206 -137.928 0)
(12.8872 -141.246 0)
(13.3159 -144.502 0)
(12.8711 -147.544 0)
(11.4093 -150.151 0)
(8.79462 -152.027 0)
(4.93148 -152.782 0)
(-0.195254 -151.895 0)
(-6.4506 -148.958 0)
(-13.519 -143.84 0)
(-20.9054 -136.436 0)
(-27.9241 -126.666 0)
(-33.6957 -114.41 0)
(-36.7313 -98.2696 0)
(2.25379e-06 -2.07559e-06 0)
(2.21649e-05 -2.71278e-05 0)
(0.000153961 -0.000244806 0)
(0.000443824 -0.000910032 0)
(0.000448246 -0.0011926 0)
(0.000269524 -0.000950645 0)
(6.33013e-05 -0.00030844 0)
(6.24726e-07 -4.52717e-06 0)
(-1.19048e-08 1.48932e-07 0)
(-6.86092e-10 2.3219e-08 0)
(-1.29249e-14 -8.88221e-13 0)
(-1.511e-14 -2.818e-13 0)
(-2.4201e-16 -2.72905e-15 0)
(3.51612e-20 2.91852e-19 0)
(5.95107e-21 3.98054e-20 0)
(2.93878e-22 1.66897e-21 0)
(9.20357e-21 4.5913e-20 0)
(5.39034e-19 2.41877e-18 0)
(6.03337e-18 2.47745e-17 0)
(-2.7262e-18 -1.03754e-17 0)
(-8.40732e-17 -2.99415e-16 0)
(-1.20893e-15 -4.05851e-15 0)
(-1.52127e-14 -4.84148e-14 0)
(-1.55912e-13 -4.72472e-13 0)
(-1.32195e-12 -3.82767e-12 0)
(-9.92933e-12 -2.75443e-11 0)
(-7.02718e-11 -1.87152e-10 0)
(-4.85535e-10 -1.24345e-09 0)
(-3.30199e-09 -8.14108e-09 0)
(-2.00726e-08 -4.76809e-08 0)
(-1.11162e-07 -2.5451e-07 0)
(-5.55638e-07 -1.22621e-06 0)
(-2.4593e-06 -5.22961e-06 0)
(-9.81207e-06 -2.00909e-05 0)
(-3.72259e-05 -7.33149e-05 0)
(-0.000139205 -0.0002633 0)
(-0.000515934 -0.000935374 0)
(-0.00185591 -0.00321722 0)
(-0.00621045 -0.010264 0)
(-0.0192526 -0.0302356 0)
(-0.0555257 -0.0825694 0)
(-0.149999 -0.210455 0)
(-0.383488 -0.505987 0)
(-0.937397 -1.16014 0)
(-2.19479 -2.54439 0)
(-4.85282 -5.27235 0)
(-9.90413 -10.1142 0)
(-17.3564 -16.7525 0)
(-26.5487 -24.4141 0)
(-36.6078 -32.3881 0)
(-46.5611 -40.0653 0)
(-55.5753 -47.0327 0)
(-63.1643 -53.1503 0)
(-69.0554 -58.374 0)
(-73.2205 -62.7673 0)
(-75.7582 -66.4197 0)
(-76.8674 -69.4451 0)
(-76.7895 -71.967 0)
(-75.7493 -74.0903 0)
(-73.9487 -75.9102 0)
(-71.5564 -77.507 0)
(-68.706 -78.9428 0)
(-65.4989 -80.2674 0)
(-62.0201 -81.5239 0)
(-58.3344 -82.7457 0)
(-54.4878 -83.959 0)
(-50.5213 -85.1855 0)
(-46.4675 -86.4433 0)
(-42.354 -87.7484 0)
(-38.2061 -89.1146 0)
(-34.0425 -90.5543 0)
(-29.8848 -92.0774 0)
(-25.7532 -93.693 0)
(-21.6694 -95.4084 0)
(-17.6579 -97.2326 0)
(-13.7408 -99.1738 0)
(-9.94793 -101.23 0)
(-6.31369 -103.41 0)
(-2.87606 -105.712 0)
(0.319005 -108.129 0)
(3.22064 -110.647 0)
(5.76494 -113.237 0)
(7.87745 -115.854 0)
(9.47247 -118.43 0)
(10.4516 -120.861 0)
(10.7075 -123 0)
(10.1278 -124.635 0)
(8.61079 -125.481 0)
(6.0893 -125.183 0)
(2.57272 -123.319 0)
(-1.80862 -119.465 0)
(-6.76222 -113.47 0)
(-11.8535 -105.445 0)
(-16.5517 -95.5609 0)
(-20.2614 -84.0149 0)
(-22.3459 -70.9366 0)
(-21.8105 -55.454 0)
(3.06138e-06 -2.95637e-06 0)
(2.7595e-05 -3.50164e-05 0)
(0.000168358 -0.000274715 0)
(0.000376609 -0.0007847 0)
(0.000333524 -0.00089321 0)
(0.000183361 -0.000644664 0)
(3.45636e-05 -0.000165886 0)
(-4.96337e-08 3.47827e-07 0)
(-2.02965e-08 2.36462e-07 0)
(-7.61386e-10 2.0931e-08 0)
(-9.33916e-15 -1.32671e-12 0)
(-1.73302e-14 -3.79559e-13 0)
(-1.09312e-16 -1.35807e-15 0)
(1.95065e-20 1.73786e-19 0)
(2.79769e-21 1.97906e-20 0)
(1.09108e-23 6.48994e-23 0)
(3.5209e-22 1.82706e-21 0)
(1.69467e-20 7.86974e-20 0)
(2.5514e-19 1.07992e-18 0)
(5.29495e-19 2.07051e-18 0)