/*--------------------------------*- C++ -*----------------------------------*\
  =========                 |
  \\      /  F ield         | OpenFOAM: The Open Source CFD Toolbox
   \\    /   O peration     | Website:  https://openfoam.org
    \\  /    A nd           | Version:  7
     \\/     M anipulation  |
\*---------------------------------------------------------------------------*/
FoamFile
{
    version     2.0;
    format      ascii;
    class       volScalarField;
    location    "5e-13";
    object      ni;
}
// * * * * * * * * * * * * * * * * * * * * * * * * * * * * * * * * * * * * * //

dimensions      [0 -3 0 0 0 0 0];

internalField   nonuniform List<scalar> 
14934
(
1.05493e+13
1.04872e+13
1.04414e+13
1.04058e+13
1.03771e+13
1.03532e+13
1.0333e+13
1.03156e+13
1.03003e+13
1.02868e+13
1.02747e+13
1.02638e+13
1.02539e+13
1.02449e+13
1.02365e+13
1.02288e+13
1.02217e+13
1.02151e+13
1.02088e+13
1.0203e+13
1.01975e+13
1.01923e+13
1.01874e+13
1.01828e+13
1.01784e+13
1.01742e+13
1.01702e+13
1.01664e+13
1.01627e+13
1.01592e+13
1.01559e+13
1.01527e+13
1.01496e+13
1.01466e+13
1.01437e+13
1.01409e+13
1.01382e+13
1.01357e+13
1.01331e+13
1.01307e+13
1.01284e+13
1.01261e+13
1.01239e+13
1.01218e+13
1.01197e+13
1.01177e+13
1.01157e+13
1.01138e+13
1.01119e+13
1.01101e+13
1.01083e+13
1.01066e+13
1.01049e+13
1.01033e+13
1.01017e+13
1.01002e+13
1.00986e+13
1.00972e+13
1.00957e+13
1.00943e+13
1.00929e+13
1.00915e+13
1.00902e+13
1.00889e+13
1.00876e+13
1.00864e+13
1.00852e+13
1.0084e+13
1.00828e+13
1.00817e+13
1.00806e+13
1.00795e+13
1.00784e+13
1.00773e+13
1.00763e+13
1.00753e+13
1.00743e+13
1.00733e+13
1.00723e+13
1.00714e+13
1.00705e+13
1.00696e+13
1.00687e+13
1.00678e+13
1.00669e+13
1.00661e+13
1.00652e+13
1.00644e+13
1.00636e+13
1.00628e+13
1.00621e+13
1.00613e+13
1.00606e+13
1.00598e+13
1.00591e+13
1.00584e+13
1.00577e+13
1.05126e+13
1.04624e+13
1.04231e+13
1.03915e+13
1.03653e+13
1.03433e+13
1.03245e+13
1.03081e+13
1.02936e+13
1.02808e+13
1.02692e+13
1.02588e+13
1.02493e+13
1.02406e+13
1.02325e+13
1.02251e+13
1.02182e+13
1.02118e+13
1.02057e+13
1.02001e+13
1.01948e+13
1.01897e+13
1.0185e+13
1.01804e+13
1.01761e+13
1.0172e+13
1.01681e+13
1.01644e+13
1.01608e+13
1.01574e+13
1.01541e+13
1.0151e+13
1.01479e+13
1.0145e+13
1.01422e+13
1.01395e+13
1.01369e+13
1.01343e+13
1.01319e+13
1.01295e+13
1.01272e+13
1.0125e+13
1.01228e+13
1.01207e+13
1.01186e+13
1.01167e+13
1.01147e+13
1.01128e+13
1.0111e+13
1.01092e+13
1.01075e+13
1.01058e+13
1.01042e+13
1.01025e+13
1.0101e+13
1.00994e+13
1.00979e+13
1.00965e+13
1.0095e+13
1.00936e+13
1.00923e+13
1.00909e+13
1.00896e+13
1.00883e+13
1.00871e+13
1.00859e+13
1.00847e+13
1.00835e+13
1.00823e+13
1.00812e+13
1.00801e+13
1.0079e+13
1.00779e+13
1.00769e+13
1.00759e+13
1.00749e+13
1.00739e+13
1.00729e+13
1.0072e+13
1.0071e+13
1.00701e+13
1.00692e+13
1.00683e+13
1.00675e+13
1.00666e+13
1.00658e+13
1.0065e+13
1.00641e+13
1.00634e+13
1.00626e+13
1.00618e+13
1.0061e+13
1.00603e+13
1.00596e+13
1.00589e+13
1.00581e+13
1.00574e+13
1.04698e+13
1.04325e+13
1.0401e+13
1.03743e+13
1.03515e+13
1.03318e+13
1.03146e+13
1.02995e+13
1.02861e+13
1.02741e+13
1.02632e+13
1.02533e+13
1.02443e+13
1.0236e+13
1.02283e+13
1.02212e+13
1.02145e+13
1.02083e+13
1.02025e+13
1.0197e+13
1.01919e+13
1.0187e+13
1.01824e+13
1.0178e+13
1.01738e+13
1.01698e+13
1.0166e+13
1.01624e+13
1.01589e+13
1.01556e+13
1.01524e+13
1.01493e+13
1.01463e+13
1.01434e+13
1.01407e+13
1.0138e+13
1.01355e+13
1.0133e+13
1.01306e+13
1.01282e+13
1.0126e+13
1.01238e+13
1.01217e+13
1.01196e+13
1.01176e+13
1.01156e+13
1.01137e+13
1.01119e+13
1.01101e+13
1.01083e+13
1.01066e+13
1.0105e+13
1.01033e+13
1.01018e+13
1.01002e+13
1.00987e+13
1.00972e+13
1.00958e+13
1.00944e+13
1.0093e+13
1.00916e+13
1.00903e+13
1.0089e+13
1.00878e+13
1.00865e+13
1.00853e+13
1.00841e+13
1.0083e+13
1.00818e+13
1.00807e+13
1.00796e+13
1.00786e+13
1.00775e+13
1.00765e+13
1.00755e+13
1.00745e+13
1.00735e+13
1.00725e+13
1.00716e+13
1.00707e+13
1.00698e+13
1.00689e+13
1.0068e+13
1.00671e+13
1.00663e+13
1.00655e+13
1.00647e+13
1.00639e+13
1.00631e+13
1.00623e+13
1.00615e+13
1.00608e+13
1.00601e+13
1.00593e+13
1.00586e+13
1.00579e+13
1.00572e+13
1.04286e+13
1.04017e+13
1.03773e+13
1.03556e+13
1.03363e+13
1.03191e+13
1.03039e+13
1.02902e+13
1.0278e+13
1.02669e+13
1.02567e+13
1.02475e+13
1.02389e+13
1.02311e+13
1.02238e+13
1.0217e+13
1.02106e+13
1.02047e+13
1.01991e+13
1.01938e+13
1.01889e+13
1.01842e+13
1.01797e+13
1.01754e+13
1.01714e+13
1.01675e+13
1.01638e+13
1.01603e+13
1.01569e+13
1.01537e+13
1.01505e+13
1.01475e+13
1.01446e+13
1.01418e+13
1.01392e+13
1.01366e+13
1.0134e+13
1.01316e+13
1.01292e+13
1.0127e+13
1.01248e+13
1.01226e+13
1.01205e+13
1.01185e+13
1.01165e+13
1.01146e+13
1.01127e+13
1.01109e+13
1.01092e+13
1.01074e+13
1.01058e+13
1.01041e+13
1.01025e+13
1.0101e+13
1.00994e+13
1.0098e+13
1.00965e+13
1.00951e+13
1.00937e+13
1.00923e+13
1.0091e+13
1.00897e+13
1.00884e+13
1.00872e+13
1.0086e+13
1.00848e+13
1.00836e+13
1.00825e+13
1.00813e+13
1.00802e+13
1.00792e+13
1.00781e+13
1.00771e+13
1.0076e+13
1.0075e+13
1.00741e+13
1.00731e+13
1.00722e+13
1.00712e+13
1.00703e+13
1.00694e+13
1.00685e+13
1.00677e+13
1.00668e+13
1.0066e+13
1.00652e+13
1.00644e+13
1.00636e+13
1.00628e+13
1.0062e+13
1.00613e+13
1.00605e+13
1.00598e+13
1.00591e+13
1.00584e+13
1.00577e+13
1.0057e+13
1.03916e+13
1.03725e+13
1.03539e+13
1.03365e+13
1.03205e+13
1.03059e+13
1.02926e+13
1.02805e+13
1.02694e+13
1.02592e+13
1.02499e+13
1.02413e+13
1.02334e+13
1.0226e+13
1.02191e+13
1.02127e+13
1.02066e+13
1.02009e+13
1.01956e+13
1.01906e+13
1.01858e+13
1.01812e+13
1.01769e+13
1.01728e+13
1.01689e+13
1.01652e+13
1.01616e+13
1.01582e+13
1.01549e+13
1.01517e+13
1.01487e+13
1.01458e+13
1.01429e+13
1.01402e+13
1.01376e+13
1.0135e+13
1.01326e+13
1.01302e+13
1.01279e+13
1.01257e+13
1.01235e+13
1.01214e+13
1.01194e+13
1.01174e+13
1.01155e+13
1.01136e+13
1.01117e+13
1.011e+13
1.01082e+13
1.01065e+13
1.01049e+13
1.01033e+13
1.01017e+13
1.01002e+13
1.00987e+13
1.00972e+13
1.00958e+13
1.00944e+13
1.0093e+13
1.00917e+13
1.00904e+13
1.00891e+13
1.00878e+13
1.00866e+13
1.00854e+13
1.00842e+13
1.00831e+13
1.0082e+13
1.00808e+13
1.00798e+13
1.00787e+13
1.00776e+13
1.00766e+13
1.00756e+13
1.00746e+13
1.00737e+13
1.00727e+13
1.00718e+13
1.00708e+13
1.00699e+13
1.00691e+13
1.00682e+13
1.00673e+13
1.00665e+13
1.00657e+13
1.00649e+13
1.00641e+13
1.00633e+13
1.00625e+13
1.00618e+13
1.0061e+13
1.00603e+13
1.00596e+13
1.00588e+13
1.00581e+13
1.00575e+13
1.00568e+13
1.03595e+13
1.03458e+13
1.03318e+13
1.0318e+13
1.03049e+13
1.02926e+13
1.02811e+13
1.02705e+13
1.02606e+13
1.02514e+13
1.02429e+13
1.0235e+13
1.02276e+13
1.02207e+13
1.02142e+13
1.02082e+13
1.02025e+13
1.01971e+13
1.0192e+13
1.01872e+13
1.01826e+13
1.01783e+13
1.01741e+13
1.01702e+13
1.01664e+13
1.01628e+13
1.01593e+13
1.0156e+13
1.01528e+13
1.01497e+13
1.01468e+13
1.01439e+13
1.01412e+13
1.01386e+13
1.0136e+13
1.01335e+13
1.01311e+13
1.01288e+13
1.01266e+13
1.01244e+13
1.01223e+13
1.01202e+13
1.01182e+13
1.01163e+13
1.01144e+13
1.01125e+13
1.01107e+13
1.0109e+13
1.01073e+13
1.01056e+13
1.0104e+13
1.01024e+13
1.01009e+13
1.00994e+13
1.00979e+13
1.00965e+13
1.00951e+13
1.00937e+13
1.00923e+13
1.0091e+13
1.00897e+13
1.00885e+13
1.00872e+13
1.0086e+13
1.00848e+13
1.00837e+13
1.00825e+13
1.00814e+13
1.00803e+13
1.00793e+13
1.00782e+13
1.00772e+13
1.00762e+13
1.00752e+13
1.00742e+13
1.00732e+13
1.00723e+13
1.00714e+13
1.00705e+13
1.00696e+13
1.00687e+13
1.00678e+13
1.0067e+13
1.00662e+13
1.00654e+13
1.00646e+13
1.00638e+13
1.0063e+13
1.00622e+13
1.00615e+13
1.00607e+13
1.006e+13
1.00593e+13
1.00586e+13
1.00579e+13
1.00572e+13
1.00565e+13
1.03318e+13
1.03219e+13
1.03113e+13
1.03005e+13
1.02898e+13
1.02795e+13
1.02697e+13
1.02604e+13
1.02517e+13
1.02435e+13
1.02358e+13
1.02285e+13
1.02217e+13
1.02153e+13
1.02093e+13
1.02036e+13
1.01982e+13
1.01932e+13
1.01883e+13
1.01837e+13
1.01794e+13
1.01752e+13
1.01712e+13
1.01675e+13
1.01638e+13
1.01603e+13
1.0157e+13
1.01538e+13
1.01507e+13
1.01477e+13
1.01449e+13
1.01421e+13
1.01395e+13
1.01369e+13
1.01344e+13
1.0132e+13
1.01296e+13
1.01274e+13
1.01252e+13
1.01231e+13
1.0121e+13
1.0119e+13
1.0117e+13
1.01151e+13
1.01133e+13
1.01115e+13
1.01097e+13
1.0108e+13
1.01063e+13
1.01047e+13
1.01031e+13
1.01016e+13
1.01e+13
1.00986e+13
1.00971e+13
1.00957e+13
1.00943e+13
1.0093e+13
1.00917e+13
1.00904e+13
1.00891e+13
1.00878e+13
1.00866e+13
1.00854e+13
1.00843e+13
1.00831e+13
1.0082e+13
1.00809e+13
1.00798e+13
1.00788e+13
1.00777e+13
1.00767e+13
1.00757e+13
1.00747e+13
1.00738e+13
1.00728e+13
1.00719e+13
1.0071e+13
1.00701e+13
1.00692e+13
1.00683e+13
1.00675e+13
1.00667e+13
1.00658e+13
1.0065e+13
1.00642e+13
1.00635e+13
1.00627e+13
1.00619e+13
1.00612e+13
1.00605e+13
1.00597e+13
1.0059e+13
1.00583e+13
1.00577e+13
1.0057e+13
1.00563e+13
1.03079e+13
1.03007e+13
1.02927e+13
1.02841e+13
1.02755e+13
1.02669e+13
1.02586e+13
1.02505e+13
1.02429e+13
1.02355e+13
1.02286e+13
1.0222e+13
1.02158e+13
1.02099e+13
1.02043e+13
1.0199e+13
1.0194e+13
1.01892e+13
1.01846e+13
1.01803e+13
1.01761e+13
1.01721e+13
1.01683e+13
1.01647e+13
1.01612e+13
1.01579e+13
1.01547e+13
1.01516e+13
1.01486e+13
1.01457e+13
1.01429e+13
1.01403e+13
1.01377e+13
1.01352e+13
1.01328e+13
1.01304e+13
1.01281e+13
1.01259e+13
1.01238e+13
1.01217e+13
1.01197e+13
1.01177e+13
1.01158e+13
1.0114e+13
1.01122e+13
1.01104e+13
1.01087e+13
1.0107e+13
1.01054e+13
1.01038e+13
1.01022e+13
1.01007e+13
1.00992e+13
1.00978e+13
1.00963e+13
1.00949e+13
1.00936e+13
1.00923e+13
1.0091e+13
1.00897e+13
1.00884e+13
1.00872e+13
1.0086e+13
1.00848e+13
1.00837e+13
1.00826e+13
1.00815e+13
1.00804e+13
1.00793e+13
1.00783e+13
1.00773e+13
1.00762e+13
1.00753e+13
1.00743e+13
1.00733e+13
1.00724e+13
1.00715e+13
1.00706e+13
1.00697e+13
1.00688e+13
1.0068e+13
1.00671e+13
1.00663e+13
1.00655e+13
1.00647e+13
1.00639e+13
1.00632e+13
1.00624e+13
1.00616e+13
1.00609e+13
1.00602e+13
1.00595e+13
1.00588e+13
1.00581e+13
1.00574e+13
1.00567e+13
1.00561e+13
1.02873e+13
1.0282e+13
1.02758e+13
1.02691e+13
1.02621e+13
1.02549e+13
1.02479e+13
1.02409e+13
1.02342e+13
1.02277e+13
1.02215e+13
1.02156e+13
1.02099e+13
1.02045e+13
1.01993e+13
1.01944e+13
1.01896e+13
1.01851e+13
1.01808e+13
1.01767e+13
1.01728e+13
1.0169e+13
1.01654e+13
1.01619e+13
1.01586e+13
1.01554e+13
1.01523e+13
1.01493e+13
1.01464e+13
1.01437e+13
1.0141e+13
1.01384e+13
1.01359e+13
1.01335e+13
1.01311e+13
1.01289e+13
1.01266e+13
1.01245e+13
1.01224e+13
1.01204e+13
1.01184e+13
1.01165e+13
1.01146e+13
1.01128e+13
1.01111e+13
1.01093e+13
1.01076e+13
1.0106e+13
1.01044e+13
1.01028e+13
1.01013e+13
1.00998e+13
1.00984e+13
1.00969e+13
1.00955e+13
1.00942e+13
1.00928e+13
1.00915e+13
1.00903e+13
1.0089e+13
1.00878e+13
1.00866e+13
1.00854e+13
1.00843e+13
1.00831e+13
1.0082e+13
1.00809e+13
1.00799e+13
1.00788e+13
1.00778e+13
1.00768e+13
1.00758e+13
1.00748e+13
1.00739e+13
1.00729e+13
1.0072e+13
1.00711e+13
1.00702e+13
1.00693e+13
1.00685e+13
1.00676e+13
1.00668e+13
1.0066e+13
1.00652e+13
1.00644e+13
1.00636e+13
1.00628e+13
1.00621e+13
1.00614e+13
1.00606e+13
1.00599e+13
1.00592e+13
1.00585e+13
1.00578e+13
1.00572e+13
1.00565e+13
1.00559e+13
1.02694e+13
1.02654e+13
1.02606e+13
1.02553e+13
1.02496e+13
1.02436e+13
1.02377e+13
1.02317e+13
1.02258e+13
1.02201e+13
1.02145e+13
1.02092e+13
1.0204e+13
1.01991e+13
1.01943e+13
1.01897e+13
1.01853e+13
1.01811e+13
1.01771e+13
1.01732e+13
1.01695e+13
1.01659e+13
1.01625e+13
1.01591e+13
1.0156e+13
1.01529e+13
1.01499e+13
1.01471e+13
1.01443e+13
1.01416e+13
1.0139e+13
1.01365e+13
1.01341e+13
1.01318e+13
1.01295e+13
1.01273e+13
1.01251e+13
1.0123e+13
1.0121e+13
1.0119e+13
1.01171e+13
1.01153e+13
1.01134e+13
1.01117e+13
1.01099e+13
1.01083e+13
1.01066e+13
1.0105e+13
1.01034e+13
1.01019e+13
1.01004e+13
1.00989e+13
1.00975e+13
1.00961e+13
1.00948e+13
1.00934e+13
1.00921e+13
1.00908e+13
1.00896e+13
1.00883e+13
1.00871e+13
1.00859e+13
1.00848e+13
1.00837e+13
1.00825e+13
1.00814e+13
1.00804e+13
1.00793e+13
1.00783e+13
1.00773e+13
1.00763e+13
1.00753e+13
1.00743e+13
1.00734e+13
1.00725e+13
1.00716e+13
1.00707e+13
1.00698e+13
1.00689e+13
1.00681e+13
1.00673e+13
1.00664e+13
1.00656e+13
1.00648e+13
1.00641e+13
1.00633e+13
1.00625e+13
1.00618e+13
1.00611e+13
1.00603e+13
1.00596e+13
1.00589e+13
1.00583e+13
1.00576e+13
1.00569e+13
1.00563e+13
1.00556e+13
1.02536e+13
1.02507e+13
1.0247e+13
1.02427e+13
1.0238e+13
1.02331e+13
1.0228e+13
1.02229e+13
1.02177e+13
1.02127e+13
1.02077e+13
1.02029e+13
1.01982e+13
1.01937e+13
1.01893e+13
1.01851e+13
1.0181e+13
1.01771e+13
1.01733e+13
1.01697e+13
1.01662e+13
1.01628e+13
1.01595e+13
1.01564e+13
1.01533e+13
1.01504e+13
1.01475e+13
1.01448e+13
1.01421e+13
1.01396e+13
1.01371e+13
1.01347e+13
1.01323e+13
1.013e+13
1.01278e+13
1.01257e+13
1.01236e+13
1.01216e+13
1.01196e+13
1.01177e+13
1.01158e+13
1.0114e+13
1.01122e+13
1.01105e+13
1.01088e+13
1.01072e+13
1.01056e+13
1.0104e+13
1.01025e+13
1.0101e+13
1.00995e+13
1.00981e+13
1.00967e+13
1.00953e+13
1.0094e+13
1.00926e+13
1.00914e+13
1.00901e+13
1.00889e+13
1.00877e+13
1.00865e+13
1.00853e+13
1.00842e+13
1.00831e+13
1.0082e+13
1.00809e+13
1.00798e+13
1.00788e+13
1.00778e+13
1.00768e+13
1.00758e+13
1.00748e+13
1.00739e+13
1.0073e+13
1.0072e+13
1.00712e+13
1.00703e+13
1.00694e+13
1.00686e+13
1.00677e+13
1.00669e+13
1.00661e+13
1.00653e+13
1.00645e+13
1.00637e+13
1.0063e+13
1.00622e+13
1.00615e+13
1.00608e+13
1.00601e+13
1.00594e+13
1.00587e+13
1.0058e+13
1.00573e+13
1.00567e+13
1.0056e+13
1.00554e+13
1.02398e+13
1.02375e+13
1.02346e+13
1.02311e+13
1.02273e+13
1.02232e+13
1.02189e+13
1.02145e+13
1.021e+13
1.02056e+13
1.02012e+13
1.01968e+13
1.01926e+13
1.01885e+13
1.01845e+13
1.01806e+13
1.01768e+13
1.01731e+13
1.01696e+13
1.01662e+13
1.01628e+13
1.01596e+13
1.01566e+13
1.01536e+13
1.01507e+13
1.01479e+13
1.01451e+13
1.01425e+13
1.014e+13
1.01375e+13
1.01351e+13
1.01328e+13
1.01305e+13
1.01283e+13
1.01262e+13
1.01241e+13
1.01221e+13
1.01201e+13
1.01182e+13
1.01163e+13
1.01145e+13
1.01127e+13
1.0111e+13
1.01093e+13
1.01077e+13
1.01061e+13
1.01045e+13
1.0103e+13
1.01015e+13
1.01e+13
1.00986e+13
1.00972e+13
1.00958e+13
1.00945e+13
1.00932e+13
1.00919e+13
1.00906e+13
1.00894e+13
1.00882e+13
1.0087e+13
1.00858e+13
1.00847e+13
1.00835e+13
1.00824e+13
1.00814e+13
1.00803e+13
1.00793e+13
1.00783e+13
1.00773e+13
1.00763e+13
1.00753e+13
1.00744e+13
1.00734e+13
1.00725e+13
1.00716e+13
1.00707e+13
1.00699e+13
1.0069e+13
1.00682e+13
1.00673e+13
1.00665e+13
1.00657e+13
1.00649e+13
1.00642e+13
1.00634e+13
1.00626e+13
1.00619e+13
1.00612e+13
1.00605e+13
1.00598e+13
1.00591e+13
1.00584e+13
1.00577e+13
1.00571e+13
1.00564e+13
1.00558e+13
1.00551e+13
1.02274e+13
1.02257e+13
1.02234e+13
1.02206e+13
1.02174e+13
1.0214e+13
1.02103e+13
1.02065e+13
1.02026e+13
1.01987e+13
1.01948e+13
1.01909e+13
1.01871e+13
1.01833e+13
1.01797e+13
1.01761e+13
1.01726e+13
1.01692e+13
1.01659e+13
1.01627e+13
1.01596e+13
1.01565e+13
1.01536e+13
1.01508e+13
1.0148e+13
1.01454e+13
1.01428e+13
1.01402e+13
1.01378e+13
1.01354e+13
1.01331e+13
1.01309e+13
1.01287e+13
1.01266e+13
1.01245e+13
1.01225e+13
1.01206e+13
1.01186e+13
1.01168e+13
1.0115e+13
1.01132e+13
1.01115e+13
1.01098e+13
1.01082e+13
1.01066e+13
1.0105e+13
1.01035e+13
1.0102e+13
1.01005e+13
1.00991e+13
1.00977e+13
1.00963e+13
1.0095e+13
1.00936e+13
1.00923e+13
1.00911e+13
1.00899e+13
1.00886e+13
1.00875e+13
1.00863e+13
1.00851e+13
1.0084e+13
1.00829e+13
1.00818e+13
1.00808e+13
1.00797e+13
1.00787e+13
1.00777e+13
1.00767e+13
1.00758e+13
1.00748e+13
1.00739e+13
1.0073e+13
1.00721e+13
1.00712e+13
1.00703e+13
1.00694e+13
1.00686e+13
1.00678e+13
1.0067e+13
1.00662e+13
1.00654e+13
1.00646e+13
1.00638e+13
1.00631e+13
1.00623e+13
1.00616e+13
1.00609e+13
1.00602e+13
1.00595e+13
1.00588e+13
1.00581e+13
1.00575e+13
1.00568e+13
1.00562e+13
1.00555e+13
1.00549e+13
1.02171e+13
1.02164e+13
1.02151e+13
1.02132e+13
1.02109e+13
1.02083e+13
1.02054e+13
1.02023e+13
1.0199e+13
1.01956e+13
1.01922e+13
1.01887e+13
1.01852e+13
1.01818e+13
1.01783e+13
1.0175e+13
1.01717e+13
1.01685e+13
1.01653e+13
1.01622e+13
1.01592e+13
1.01563e+13
1.01535e+13
1.01507e+13
1.0148e+13
1.01454e+13
1.01429e+13
1.01404e+13
1.0138e+13
1.01356e+13
1.01334e+13
1.01311e+13
1.0129e+13
1.01269e+13
1.01248e+13
1.01229e+13
1.01209e+13
1.0119e+13
1.01172e+13
1.01154e+13
1.01136e+13
1.01119e+13
1.01102e+13
1.01086e+13
1.0107e+13
1.01054e+13
1.01039e+13
1.01024e+13
1.01009e+13
1.00995e+13
1.00981e+13
1.00968e+13
1.00954e+13
1.00941e+13
1.00928e+13
1.00915e+13
1.00903e+13
1.00891e+13
1.00879e+13
1.00867e+13
1.00856e+13
1.00845e+13
1.00834e+13
1.00823e+13
1.00812e+13
1.00802e+13
1.00792e+13
1.00782e+13
1.00772e+13
1.00762e+13
1.00753e+13
1.00743e+13
1.00734e+13
1.00725e+13
1.00716e+13
1.00707e+13
1.00699e+13
1.0069e+13
1.00682e+13
1.00674e+13
1.00666e+13
1.00658e+13
1.0065e+13
1.00642e+13
1.00635e+13
1.00627e+13
1.0062e+13
1.00613e+13
1.00606e+13
1.00599e+13
1.00592e+13
1.00585e+13
1.00578e+13
1.00572e+13
1.00565e+13
1.00559e+13
1.00553e+13
1.00547e+13
1.0207e+13
1.02064e+13
1.02054e+13
1.02039e+13
1.02021e+13
1.01999e+13
1.01974e+13
1.01948e+13
1.01919e+13
1.0189e+13
1.01859e+13
1.01828e+13
1.01797e+13
1.01766e+13
1.01735e+13
1.01704e+13
1.01674e+13
1.01644e+13
1.01615e+13
1.01586e+13
1.01558e+13
1.01531e+13
1.01504e+13
1.01478e+13
1.01453e+13
1.01428e+13
1.01404e+13
1.0138e+13
1.01357e+13
1.01335e+13
1.01313e+13
1.01292e+13
1.01271e+13
1.01251e+13
1.01231e+13
1.01212e+13
1.01193e+13
1.01175e+13
1.01157e+13
1.0114e+13
1.01123e+13
1.01106e+13
1.0109e+13
1.01074e+13
1.01058e+13
1.01043e+13
1.01028e+13
1.01014e+13
1.00999e+13
1.00985e+13
1.00972e+13
1.00958e+13
1.00945e+13
1.00932e+13
1.0092e+13
1.00907e+13
1.00895e+13
1.00883e+13
1.00872e+13
1.0086e+13
1.00849e+13
1.00838e+13
1.00827e+13
1.00817e+13
1.00806e+13
1.00796e+13
1.00786e+13
1.00776e+13
1.00766e+13
1.00757e+13
1.00747e+13
1.00738e+13
1.00729e+13
1.0072e+13
1.00712e+13
1.00703e+13
1.00694e+13
1.00686e+13
1.00678e+13
1.0067e+13
1.00662e+13
1.00654e+13
1.00646e+13
1.00639e+13
1.00631e+13
1.00624e+13
1.00617e+13
1.0061e+13
1.00603e+13
1.00596e+13
1.00589e+13
1.00582e+13
1.00576e+13
1.00569e+13
1.00563e+13
1.00556e+13
1.0055e+13
1.00544e+13
1.01978e+13
1.01974e+13
1.01967e+13
1.01955e+13
1.01939e+13
1.01921e+13
1.019e+13
1.01877e+13
1.01853e+13
1.01827e+13
1.018e+13
1.01772e+13
1.01744e+13
1.01716e+13
1.01688e+13
1.0166e+13
1.01632e+13
1.01605e+13
1.01578e+13
1.01551e+13
1.01525e+13
1.01499e+13
1.01474e+13
1.0145e+13
1.01426e+13
1.01402e+13
1.01379e+13
1.01357e+13
1.01335e+13
1.01314e+13
1.01293e+13
1.01272e+13
1.01252e+13
1.01233e+13
1.01214e+13
1.01196e+13
1.01177e+13
1.0116e+13
1.01142e+13
1.01126e+13
1.01109e+13
1.01093e+13
1.01077e+13
1.01062e+13
1.01047e+13
1.01032e+13
1.01017e+13
1.01003e+13
1.00989e+13
1.00976e+13
1.00962e+13
1.00949e+13
1.00936e+13
1.00924e+13
1.00911e+13
1.00899e+13
1.00887e+13
1.00876e+13
1.00864e+13
1.00853e+13
1.00842e+13
1.00831e+13
1.00821e+13
1.0081e+13
1.008e+13
1.0079e+13
1.0078e+13
1.00771e+13
1.00761e+13
1.00752e+13
1.00742e+13
1.00733e+13
1.00724e+13
1.00716e+13
1.00707e+13
1.00698e+13
1.0069e+13
1.00682e+13
1.00674e+13
1.00666e+13
1.00658e+13
1.0065e+13
1.00643e+13
1.00635e+13
1.00628e+13
1.00621e+13
1.00614e+13
1.00606e+13
1.006e+13
1.00593e+13
1.00586e+13
1.00579e+13
1.00573e+13
1.00566e+13
1.0056e+13
1.00554e+13
1.00548e+13
1.00542e+13
1.01895e+13
1.01893e+13
1.01887e+13
1.01877e+13
1.01864e+13
1.01849e+13
1.01831e+13
1.01811e+13
1.0179e+13
1.01767e+13
1.01743e+13
1.01719e+13
1.01694e+13
1.01668e+13
1.01643e+13
1.01617e+13
1.01592e+13
1.01567e+13
1.01542e+13
1.01517e+13
1.01492e+13
1.01468e+13
1.01445e+13
1.01422e+13
1.01399e+13
1.01377e+13
1.01355e+13
1.01334e+13
1.01313e+13
1.01292e+13
1.01272e+13
1.01253e+13
1.01234e+13
1.01215e+13
1.01197e+13
1.01179e+13
1.01162e+13
1.01145e+13
1.01128e+13
1.01112e+13
1.01096e+13
1.0108e+13
1.01065e+13
1.0105e+13
1.01035e+13
1.0102e+13
1.01006e+13
1.00993e+13
1.00979e+13
1.00966e+13
1.00953e+13
1.0094e+13
1.00927e+13
1.00915e+13
1.00903e+13
1.00891e+13
1.0088e+13
1.00868e+13
1.00857e+13
1.00846e+13
1.00835e+13
1.00825e+13
1.00814e+13
1.00804e+13
1.00794e+13
1.00784e+13
1.00774e+13
1.00765e+13
1.00756e+13
1.00746e+13
1.00737e+13
1.00728e+13
1.0072e+13
1.00711e+13
1.00702e+13
1.00694e+13
1.00686e+13
1.00678e+13
1.0067e+13
1.00662e+13
1.00654e+13
1.00647e+13
1.00639e+13
1.00632e+13
1.00624e+13
1.00617e+13
1.0061e+13
1.00603e+13
1.00596e+13
1.0059e+13
1.00583e+13
1.00577e+13
1.0057e+13
1.00564e+13
1.00557e+13
1.00551e+13
1.00545e+13
1.00539e+13
1.01819e+13
1.01818e+13
1.01813e+13
1.01805e+13
1.01795e+13
1.01782e+13
1.01767e+13
1.0175e+13
1.01731e+13
1.01711e+13
1.0169e+13
1.01668e+13
1.01645e+13
1.01623e+13
1.01599e+13
1.01576e+13
1.01553e+13
1.01529e+13
1.01506e+13
1.01483e+13
1.0146e+13
1.01438e+13
1.01416e+13
1.01394e+13
1.01373e+13
1.01352e+13
1.01331e+13
1.01311e+13
1.01291e+13
1.01271e+13
1.01252e+13
1.01234e+13
1.01215e+13
1.01198e+13
1.0118e+13
1.01163e+13
1.01146e+13
1.0113e+13
1.01113e+13
1.01098e+13
1.01082e+13
1.01067e+13
1.01052e+13
1.01038e+13
1.01023e+13
1.01009e+13
1.00996e+13
1.00982e+13
1.00969e+13
1.00956e+13
1.00943e+13
1.00931e+13
1.00919e+13
1.00907e+13
1.00895e+13
1.00883e+13
1.00872e+13
1.00861e+13
1.0085e+13
1.00839e+13
1.00828e+13
1.00818e+13
1.00808e+13
1.00798e+13
1.00788e+13
1.00778e+13
1.00769e+13
1.00759e+13
1.0075e+13
1.00741e+13
1.00732e+13
1.00723e+13
1.00715e+13
1.00706e+13
1.00698e+13
1.0069e+13
1.00682e+13
1.00674e+13
1.00666e+13
1.00658e+13
1.0065e+13
1.00643e+13
1.00635e+13
1.00628e+13
1.00621e+13
1.00614e+13
1.00607e+13
1.006e+13
1.00593e+13
1.00587e+13
1.0058e+13
1.00574e+13
1.00567e+13
1.00561e+13
1.00555e+13
1.00549e+13
1.00543e+13
1.00537e+13
1.0175e+13
1.01749e+13
1.01746e+13
1.01739e+13
1.01731e+13
1.01719e+13
1.01706e+13
1.01692e+13
1.01675e+13
1.01658e+13
1.01639e+13
1.01619e+13
1.01599e+13
1.01578e+13
1.01557e+13
1.01536e+13
1.01515e+13
1.01493e+13
1.01472e+13
1.0145e+13
1.01429e+13
1.01408e+13
1.01387e+13
1.01367e+13
1.01347e+13
1.01327e+13
1.01307e+13
1.01288e+13
1.01269e+13
1.01251e+13
1.01233e+13
1.01215e+13
1.01197e+13
1.0118e+13
1.01163e+13
1.01147e+13
1.0113e+13
1.01115e+13
1.01099e+13
1.01084e+13
1.01069e+13
1.01054e+13
1.0104e+13
1.01026e+13
1.01012e+13
1.00998e+13
1.00985e+13
1.00972e+13
1.00959e+13
1.00946e+13
1.00934e+13
1.00922e+13
1.0091e+13
1.00898e+13
1.00887e+13
1.00875e+13
1.00864e+13
1.00853e+13
1.00842e+13
1.00832e+13
1.00822e+13
1.00811e+13
1.00801e+13
1.00792e+13
1.00782e+13
1.00772e+13
1.00763e+13
1.00754e+13
1.00745e+13
1.00736e+13
1.00727e+13
1.00718e+13
1.0071e+13
1.00702e+13
1.00693e+13
1.00685e+13
1.00677e+13
1.00669e+13
1.00662e+13
1.00654e+13
1.00646e+13
1.00639e+13
1.00632e+13
1.00625e+13
1.00618e+13
1.00611e+13
1.00604e+13
1.00597e+13
1.0059e+13
1.00584e+13
1.00577e+13
1.00571e+13
1.00564e+13
1.00558e+13
1.00552e+13
1.00546e+13
1.0054e+13
1.00534e+13
1.01686e+13
1.01686e+13
1.01683e+13
1.01678e+13
1.01671e+13
1.01661e+13
1.0165e+13
1.01637e+13
1.01623e+13
1.01607e+13
1.01591e+13
1.01573e+13
1.01555e+13
1.01536e+13
1.01517e+13
1.01498e+13
1.01478e+13
1.01458e+13
1.01438e+13
1.01418e+13
1.01399e+13
1.01379e+13
1.0136e+13
1.0134e+13
1.01321e+13
1.01303e+13
1.01284e+13
1.01266e+13
1.01248e+13
1.0123e+13
1.01213e+13
1.01196e+13
1.01179e+13
1.01163e+13
1.01146e+13
1.01131e+13
1.01115e+13
1.011e+13
1.01085e+13
1.0107e+13
1.01055e+13
1.01041e+13
1.01027e+13
1.01014e+13
1.01e+13
1.00987e+13
1.00974e+13
1.00961e+13
1.00949e+13
1.00936e+13
1.00924e+13
1.00913e+13
1.00901e+13
1.00889e+13
1.00878e+13
1.00867e+13
1.00856e+13
1.00846e+13
1.00835e+13
1.00825e+13
1.00815e+13
1.00805e+13
1.00795e+13
1.00785e+13
1.00776e+13
1.00766e+13
1.00757e+13
1.00748e+13
1.00739e+13
1.00731e+13
1.00722e+13
1.00713e+13
1.00705e+13
1.00697e+13
1.00689e+13
1.00681e+13
1.00673e+13
1.00665e+13
1.00658e+13
1.0065e+13
1.00643e+13
1.00635e+13
1.00628e+13
1.00621e+13
1.00614e+13
1.00607e+13
1.006e+13
1.00594e+13
1.00587e+13
1.00581e+13
1.00574e+13
1.00568e+13
1.00562e+13
1.00556e+13
1.00549e+13
1.00543e+13
1.00538e+13
1.00532e+13
1.01627e+13
1.01627e+13
1.01625e+13
1.01621e+13
1.01615e+13
1.01607e+13
1.01597e+13
1.01586e+13
1.01573e+13
1.0156e+13
1.01545e+13
1.01529e+13
1.01513e+13
1.01496e+13
1.01478e+13
1.0146e+13
1.01442e+13
1.01424e+13
1.01406e+13
1.01387e+13
1.01369e+13
1.01351e+13
1.01332e+13
1.01314e+13
1.01297e+13
1.01279e+13
1.01261e+13
1.01244e+13
1.01227e+13
1.0121e+13
1.01194e+13
1.01177e+13
1.01161e+13
1.01145e+13
1.0113e+13
1.01115e+13
1.011e+13
1.01085e+13
1.0107e+13
1.01056e+13
1.01042e+13
1.01028e+13
1.01015e+13
1.01002e+13
1.00989e+13
1.00976e+13
1.00963e+13
1.00951e+13
1.00939e+13
1.00927e+13
1.00915e+13
1.00903e+13
1.00892e+13
1.00881e+13
1.0087e+13
1.00859e+13
1.00849e+13
1.00838e+13
1.00828e+13
1.00818e+13
1.00808e+13
1.00798e+13
1.00789e+13
1.00779e+13
1.0077e+13
1.00761e+13
1.00752e+13
1.00743e+13
1.00734e+13
1.00725e+13
1.00717e+13
1.00708e+13
1.007e+13
1.00692e+13
1.00684e+13
1.00676e+13
1.00669e+13
1.00661e+13
1.00653e+13
1.00646e+13
1.00639e+13
1.00632e+13
1.00624e+13
1.00617e+13
1.00611e+13
1.00604e+13
1.00597e+13
1.0059e+13
1.00584e+13
1.00578e+13
1.00571e+13
1.00565e+13
1.00559e+13
1.00553e+13
1.00547e+13
1.00541e+13
1.00535e+13
1.00529e+13
1.01572e+13
1.01573e+13
1.01572e+13
1.01568e+13
1.01563e+13
1.01556e+13
1.01548e+13
1.01538e+13
1.01527e+13
1.01515e+13
1.01501e+13
1.01487e+13
1.01472e+13
1.01457e+13
1.01441e+13
1.01425e+13
1.01408e+13
1.01391e+13
1.01374e+13
1.01357e+13
1.0134e+13
1.01323e+13
1.01306e+13
1.01289e+13
1.01272e+13
1.01255e+13
1.01239e+13
1.01222e+13
1.01206e+13
1.0119e+13
1.01175e+13
1.01159e+13
1.01144e+13
1.01128e+13
1.01114e+13
1.01099e+13
1.01085e+13
1.0107e+13
1.01056e+13
1.01043e+13
1.01029e+13
1.01016e+13
1.01003e+13
1.0099e+13
1.00977e+13
1.00965e+13
1.00953e+13
1.00941e+13
1.00929e+13
1.00917e+13
1.00906e+13
1.00894e+13
1.00883e+13
1.00873e+13
1.00862e+13
1.00851e+13
1.00841e+13
1.00831e+13
1.00821e+13
1.00811e+13
1.00801e+13
1.00791e+13
1.00782e+13
1.00773e+13
1.00764e+13
1.00755e+13
1.00746e+13
1.00737e+13
1.00729e+13
1.0072e+13
1.00712e+13
1.00704e+13
1.00695e+13
1.00687e+13
1.0068e+13
1.00672e+13
1.00664e+13
1.00657e+13
1.00649e+13
1.00642e+13
1.00635e+13
1.00628e+13
1.00621e+13
1.00614e+13
1.00607e+13
1.006e+13
1.00594e+13
1.00587e+13
1.00581e+13
1.00575e+13
1.00568e+13
1.00562e+13
1.00556e+13
1.0055e+13
1.00544e+13
1.00538e+13
1.00532e+13
1.00527e+13
1.01522e+13
1.01522e+13
1.01521e+13
1.01519e+13
1.01514e+13
1.01509e+13
1.01501e+13
1.01493e+13
1.01483e+13
1.01472e+13
1.0146e+13
1.01447e+13
1.01434e+13
1.0142e+13
1.01405e+13
1.0139e+13
1.01375e+13
1.0136e+13
1.01344e+13
1.01328e+13
1.01312e+13
1.01296e+13
1.0128e+13
1.01264e+13
1.01248e+13
1.01233e+13
1.01217e+13
1.01201e+13
1.01186e+13
1.01171e+13
1.01156e+13
1.01141e+13
1.01126e+13
1.01112e+13
1.01097e+13
1.01083e+13
1.0107e+13
1.01056e+13
1.01042e+13
1.01029e+13
1.01016e+13
1.01003e+13
1.00991e+13
1.00978e+13
1.00966e+13
1.00954e+13
1.00942e+13
1.0093e+13
1.00919e+13
1.00908e+13
1.00896e+13
1.00885e+13
1.00875e+13
1.00864e+13
1.00854e+13
1.00843e+13
1.00833e+13
1.00823e+13
1.00813e+13
1.00804e+13
1.00794e+13
1.00785e+13
1.00776e+13
1.00767e+13
1.00758e+13
1.00749e+13
1.0074e+13
1.00732e+13
1.00723e+13
1.00715e+13
1.00707e+13
1.00699e+13
1.00691e+13
1.00683e+13
1.00675e+13
1.00667e+13
1.0066e+13
1.00653e+13
1.00645e+13
1.00638e+13
1.00631e+13
1.00624e+13
1.00617e+13
1.0061e+13
1.00604e+13
1.00597e+13
1.0059e+13
1.00584e+13
1.00578e+13
1.00571e+13
1.00565e+13
1.00559e+13
1.00553e+13
1.00547e+13
1.00541e+13
1.00536e+13
1.0053e+13
1.00524e+13
1.01474e+13
1.01475e+13
1.01475e+13
1.01472e+13
1.01469e+13
1.01464e+13
1.01457e+13
1.0145e+13
1.01441e+13
1.01431e+13
1.01421e+13
1.01409e+13
1.01397e+13
1.01384e+13
1.01371e+13
1.01357e+13
1.01343e+13
1.01329e+13
1.01315e+13
1.013e+13
1.01285e+13
1.0127e+13
1.01255e+13
1.0124e+13
1.01225e+13
1.0121e+13
1.01195e+13
1.01181e+13
1.01166e+13
1.01152e+13
1.01137e+13
1.01123e+13
1.01109e+13
1.01095e+13
1.01082e+13
1.01068e+13
1.01055e+13
1.01042e+13
1.01029e+13
1.01016e+13
1.01003e+13
1.00991e+13
1.00979e+13
1.00967e+13
1.00955e+13
1.00943e+13
1.00932e+13
1.0092e+13
1.00909e+13
1.00898e+13
1.00887e+13
1.00877e+13
1.00866e+13
1.00856e+13
1.00846e+13
1.00835e+13
1.00826e+13
1.00816e+13
1.00806e+13
1.00797e+13
1.00787e+13
1.00778e+13
1.00769e+13
1.0076e+13
1.00752e+13
1.00743e+13
1.00734e+13
1.00726e+13
1.00718e+13
1.0071e+13
1.00702e+13
1.00694e+13
1.00686e+13
1.00678e+13
1.00671e+13
1.00663e+13
1.00656e+13
1.00648e+13
1.00641e+13
1.00634e+13
1.00627e+13
1.0062e+13
1.00613e+13
1.00607e+13
1.006e+13
1.00594e+13
1.00587e+13
1.00581e+13
1.00575e+13
1.00568e+13
1.00562e+13
1.00556e+13
1.0055e+13
1.00545e+13
1.00539e+13
1.00533e+13
1.00527e+13
1.00522e+13
1.0143e+13
1.01431e+13
1.01431e+13
1.01429e+13
1.01426e+13
1.01422e+13
1.01416e+13
1.01409e+13
1.01402e+13
1.01393e+13
1.01383e+13
1.01373e+13
1.01362e+13
1.0135e+13
1.01338e+13
1.01326e+13
1.01313e+13
1.013e+13
1.01286e+13
1.01272e+13
1.01259e+13
1.01245e+13
1.01231e+13
1.01216e+13
1.01202e+13
1.01188e+13
1.01174e+13
1.0116e+13
1.01147e+13
1.01133e+13
1.01119e+13
1.01106e+13
1.01092e+13
1.01079e+13
1.01066e+13
1.01053e+13
1.0104e+13
1.01028e+13
1.01015e+13
1.01003e+13
1.00991e+13
1.00979e+13
1.00967e+13
1.00955e+13
1.00944e+13
1.00932e+13
1.00921e+13
1.0091e+13
1.00899e+13
1.00889e+13
1.00878e+13
1.00868e+13
1.00857e+13
1.00847e+13
1.00837e+13
1.00828e+13
1.00818e+13
1.00808e+13
1.00799e+13
1.0079e+13
1.00781e+13
1.00772e+13
1.00763e+13
1.00754e+13
1.00746e+13
1.00737e+13
1.00729e+13
1.00721e+13
1.00712e+13
1.00704e+13
1.00696e+13
1.00689e+13
1.00681e+13
1.00673e+13
1.00666e+13
1.00659e+13
1.00651e+13
1.00644e+13
1.00637e+13
1.0063e+13
1.00623e+13
1.00616e+13
1.0061e+13
1.00603e+13
1.00597e+13
1.0059e+13
1.00584e+13
1.00578e+13
1.00571e+13
1.00565e+13
1.00559e+13
1.00553e+13
1.00548e+13
1.00542e+13
1.00536e+13
1.0053e+13
1.00525e+13
1.00519e+13
1.01386e+13
1.01388e+13
1.0139e+13
1.0139e+13
1.01388e+13
1.01386e+13
1.01382e+13
1.01377e+13
1.01371e+13
1.01364e+13
1.01356e+13
1.01348e+13
1.01338e+13
1.01328e+13
1.01318e+13
1.01307e+13
1.01295e+13
1.01283e+13
1.01271e+13
1.01259e+13
1.01246e+13
1.01233e+13
1.0122e+13
1.01207e+13
1.01194e+13
1.0118e+13
1.01167e+13
1.01154e+13
1.01141e+13