/*--------------------------------*- C++ -*----------------------------------*\
  =========                 |
  \\      /  F ield         | OpenFOAM: The Open Source CFD Toolbox
   \\    /   O peration     | Website:  https://openfoam.org
    \\  /    A nd           | Version:  7
     \\/     M anipulation  |
\*---------------------------------------------------------------------------*/
FoamFile
{
    version     2.0;
    format      ascii;
    class       volScalarField;
    location    "0.4/air";
    object      Tair;
}
// * * * * * * * * * * * * * * * * * * * * * * * * * * * * * * * * * * * * * //

dimensions      [0 0 0 1 0 0 0];

internalField   nonuniform List<scalar> 
1600
(
349.27
347.813
346.358
344.909
343.468
342.038
340.621
339.219
337.836
336.475
335.138
333.829
332.551
331.307
330.1
328.933
327.81
326.731
325.699
324.715
323.78
322.893
322.055
321.264
320.519
319.817
319.155
318.532
317.944
317.388
316.862
316.361
315.885
315.43
314.993
314.573
314.167
313.774
313.392
313.019
349.269
347.809
346.352
344.901
343.458
342.025
340.605
339.201
337.815
336.45
335.11
333.798
332.517
331.27
330.06
328.891
327.765
326.684
325.651
324.666
323.731
322.845
322.008
321.219
320.475
319.776
319.117
318.497
317.912
317.359
316.835
316.338
315.864
315.411
314.976
314.558
314.154
313.763
313.382
313.011
349.267
347.803
346.341
344.885
343.437
341.999
340.574
339.163
337.772
336.401
335.055
333.736
332.448
331.195
329.979
328.805
327.674
326.59
325.554
324.568
323.632
322.748
321.913
321.128
320.388
319.694
319.041
318.426
317.847
317.3
316.782
316.291
315.822
315.374
314.944
314.529
314.129
313.741
313.363
312.994
349.264
347.793
346.324
344.861
343.406
341.96
340.527
339.108
337.707
336.327
334.972
333.643
332.345
331.083
329.858
328.675
327.537
326.447
325.407
324.419
323.484
322.601
321.77
320.989
320.257
319.57
318.926
318.32
317.751
317.213
316.704
316.22
315.759
315.319
314.895
314.487
314.092
313.708
313.335
312.97
349.26
347.78
346.302
344.83
343.365
341.909
340.465
339.035
337.623
336.23
334.861
333.519
332.208
330.932
329.695
328.5
327.352
326.254
325.209
324.218
323.282
322.402
321.576
320.803
320.08
319.404
318.772
318.179
317.622
317.096
316.599
316.127
315.677
315.246
314.831
314.431
314.043
313.666
313.298
312.938
349.254
347.764
346.276
344.792
343.315
341.847
340.389
338.945
337.517
336.109
334.723
333.364
332.036
330.743
329.489
328.279
327.118
326.009
324.956
323.961
323.025
322.148
321.329
320.567
319.857
319.195
318.579
318.002
317.461
316.952
316.47
316.012
315.576
315.157
314.753
314.363
313.984
313.614
313.253
312.899
349.248
347.745
346.244
344.747
343.256
341.773
340.3
338.839
337.393
335.965
334.559
333.179
331.829
330.513
329.239
328.009
326.831
325.708
324.645
323.644
322.708
321.836
321.027
320.277
319.584
318.941
318.345
317.789
317.269
316.78
316.317
315.877
315.456
315.052
314.662
314.283
313.915
313.555
313.202
312.855
349.241
347.724
346.209
344.697
343.19
341.69
340.198
338.717
337.25
335.799
334.369
332.963
331.586
330.244
328.943
327.689
326.488
325.347
324.271
323.264
322.327
321.462
320.665
319.933
319.26
318.642
318.071
317.541
317.046
316.581
316.141
315.722
315.32
314.933
314.559
314.194
313.837
313.488
313.144
312.805
349.233
347.701
346.17
344.642
343.117
341.598
340.086
338.583
337.091
335.614
334.155
332.718
331.309
329.934
328.6
327.315
326.086
324.922
323.829
322.813
321.876
321.018
320.237
319.528
318.883
318.295
317.755
317.257
316.793
316.357
315.944
315.55
315.17
314.803
314.445
314.096
313.753
313.415
313.081
312.751
349.225
347.676
346.128
344.582
343.039
341.499
339.964
338.436
336.917
335.41
333.918
332.445
330.998
329.583
328.209
326.884
325.62
324.425
323.31
322.282
321.345
320.498
319.739
319.058
318.449
317.899
317.399
316.939
316.512
316.11
315.728
315.362
315.008
314.662
314.324
313.991
313.663
313.338
313.015
312.694
349.217
347.651
346.085
344.52
342.957
341.395
339.836
338.281
336.732
335.191
333.661
332.147
330.655
329.192
327.768
326.394
325.083
323.849
322.705
321.661
320.723
319.892
319.16
318.519
317.954
317.453
317.002
316.589
316.206
315.844
315.498
315.163
314.836
314.515
314.197
313.883
313.57
313.258
312.947
312.636
349.208
347.625
346.041
344.457
342.873
341.288
339.704
338.12
336.538
334.96
333.388
331.827
330.282
328.762
327.276
325.84
324.469
323.182
321.999
320.934
319.996
319.185
318.492
317.902
317.397
316.957
316.566
316.21
315.878
315.561
315.255
314.955
314.659
314.363
314.068
313.772
313.476
313.178
312.878
312.577
349.2
347.599
345.998
344.394
342.789
341.181
339.57
337.957
336.341
334.723
333.105
331.491
329.886
328.297
326.736
325.22
323.771
322.413
321.174
320.079
319.141
318.359
317.721
317.201
316.774
316.412
316.095
315.806
315.534
315.269
315.007
314.745
314.48
314.212
313.94
313.663
313.383
313.099
312.811
312.52
349.192
347.574
345.955
344.334
342.708
341.077
339.44
337.796
336.145
334.486
332.819
331.146
329.472
327.803
326.151
324.534
322.98
321.525
320.206
319.068
318.129
317.39
316.832
316.409
316.085
315.823
315.597
315.387
315.181
314.973
314.759
314.536
314.305
314.064
313.815
313.558
313.294
313.023
312.747
312.466
349.184
347.551
345.916
344.277
342.632
340.979
339.317
337.644
335.957
334.256
332.538
330.804
329.054
327.293
325.531
323.785
322.09
320.502
319.057
317.858
316.919
316.239
315.807
315.517
315.333
315.199
315.082
314.963
314.832
314.684
314.519
314.337
314.139
313.925
313.698
313.46
313.211
312.953
312.688
312.416
349.177
347.531
345.881
344.226
342.563
340.891
339.205
337.504
335.784
334.042
332.274
330.476
328.647
326.785
324.894
322.985
321.094
319.336
317.66
316.388
315.449
314.842
314.64
314.519
314.53
314.559
314.57
314.551
314.498
314.413
314.297
314.154
313.987
313.799
313.593
313.372
313.137
312.891
312.636
312.372
349.171
347.513
345.851
344.183
342.505
340.815
339.109
337.384
335.634
333.854
332.039
330.18
328.272
326.305
324.273
322.169
319.964
318.09
316.483
315.211
314.272
313.665
313.392
313.387
313.712
313.936
314.087
314.172
314.198
314.172
314.102
313.995
313.857
313.691
313.504
313.297
313.075
312.839
312.591
312.334
349.167
347.499
345.828
344.149
342.459
340.755
339.033
337.287
335.513
333.702
331.846
329.935
327.956
325.891
323.726
321.452
319.13
317.199
315.597
314.326
313.387
312.778
312.5
312.552
312.993
313.386
313.67
313.852
313.949
313.975
313.945
313.868
313.753
313.606
313.433
313.239
313.026
312.798
312.557
312.305
349.164
347.49
345.811
344.125
342.427
340.714
338.98
337.22
335.428
333.594
331.709
329.758
327.723
325.579
323.287
320.782
318.531
316.604
315.005
313.736
312.796
312.186
311.905
311.952
312.322
312.946
313.356
313.618
313.769
313.835
313.834
313.779
313.68
313.547
313.385
313.198
312.992
312.77
312.533
312.286
349.162
347.485
345.803
344.113
342.411
340.692
338.953
337.186
335.384
333.539
331.638
329.666
327.601
325.414
323.062
320.484
318.232
316.307
314.709
313.44
312.5
311.889
311.607
311.652
312.023
312.72
313.19
313.495
313.675
313.762
313.776
313.733
313.643
313.517
313.36
313.178
312.975
312.755
312.521
312.275
349.162
347.485
345.803
344.113
342.411
340.692
338.953
337.186
335.384
333.539
331.638
329.666
327.601
325.414
323.062
320.484
318.232
316.307
314.709
313.44
312.5
311.889
311.607
311.652
312.023
312.72
313.19
313.495
313.675
313.762
313.776
313.733
313.643
313.517
313.36
313.178
312.975
312.755
312.521
312.275
349.164
347.49
345.811
344.125
342.427
340.714
338.98
337.22
335.428
333.594
331.709
329.758
327.723
325.579
323.287
320.782
318.531
316.604
315.005
313.736
312.796
312.186
311.905
311.952
312.322
312.946
313.356
313.618
313.769
313.835
313.834
313.779
313.68
313.547
313.385
313.198
312.992
312.77
312.533
312.286
349.167
347.499
345.828
344.149
342.459
340.755
339.033
337.287
335.513
333.702
331.846
329.935
327.956
325.891
323.726
321.452
319.13
317.199
315.597
314.326
313.387
312.778
312.5
312.552
312.993
313.386
313.67
313.852
313.949
313.975
313.945
313.868
313.753
313.606
313.433
313.239
313.026
312.798
312.557
312.305
349.171
347.513
345.851
344.183
342.505
340.815
339.109
337.384
335.634
333.854
332.039
330.18
328.272
326.305
324.273
322.169
319.964
318.09
316.483
315.211
314.272
313.665
313.392
313.387
313.712
313.936
314.087
314.172
314.198
314.172
314.102
313.995
313.857
313.691
313.504
313.297
313.075
312.839
312.591
312.334
349.177
347.531
345.881
344.226
342.563
340.891
339.205
337.504
335.784
334.042
332.274
330.476
328.647
326.785
324.894
322.985
321.094
319.336
317.66
316.388
315.449
314.842
314.64
314.519
314.53
314.559
314.57
314.551
314.498
314.413
314.297
314.154
313.987
313.799
313.593
313.372
313.137
312.891
312.636
312.372
349.184
347.551
345.916
344.277
342.632
340.979
339.317
337.644
335.957
334.256
332.538
330.804
329.054
327.293
325.531
323.785
322.09
320.502
319.057
317.858
316.919
316.239
315.807
315.517
315.333
315.199
315.082
314.963
314.832
314.684
314.519
314.337
314.139
313.925
313.698
313.46
313.211
312.953
312.688
312.416
349.192
347.574
345.955
344.334
342.708
341.077
339.44
337.796
336.145
334.486
332.819
331.146
329.472
327.803
326.151
324.534
322.98
321.525
320.206
319.068
318.129
317.39
316.832
316.409
316.085
315.823
315.597
315.387
315.181
314.973
314.759
314.536
314.305
314.064
313.815
313.558
313.294
313.023
312.747
312.466
349.2
347.599
345.998
344.394
342.789
341.181
339.57
337.957
336.341
334.723
333.105
331.491
329.886
328.297
326.736
325.22
323.771
322.413
321.174
320.079
319.141
318.359
317.721
317.201
316.774
316.412
316.095
315.806
315.534
315.269
315.007
314.745
314.48
314.212
313.94
313.663
313.383
313.099
312.811
312.52
349.208
347.625
346.041
344.457
342.873
341.288
339.704
338.12
336.538
334.96
333.388
331.827
330.282
328.762
327.276
325.84
324.469
323.182
321.999
320.934
319.996
319.185
318.492
317.902
317.397
316.957
316.566
316.21
315.878
315.561
315.255
314.955
314.659
314.363
314.068
313.772
313.476
313.178
312.878
312.577
349.217
347.651
346.085
344.52
342.957
341.395
339.836
338.281
336.732
335.191
333.661
332.147
330.655
329.192
327.768
326.394
325.083
323.849
322.705
321.661
320.723
319.892
319.16
318.519
317.954
317.453
317.002
316.589
316.206
315.844
315.498
315.163
314.836
314.515
314.197
313.883
313.57
313.258
312.947
312.636
349.225
347.676
346.128
344.582
343.039
341.499
339.964
338.436
336.917
335.41
333.918
332.445
330.998
329.583
328.209
326.884
325.62
324.425
323.31
322.282
321.345
320.498
319.739
319.058
318.449
317.899
317.399
316.939
316.512
316.11
315.728
315.362
315.008
314.662
314.324
313.991
313.663
313.338
313.015
312.694
349.233
347.701
346.17
344.642
343.117
341.598
340.086
338.583
337.091
335.614
334.155
332.718
331.309
329.934
328.6
327.315
326.086
324.922
323.829
322.813
321.876
321.018
320.237
319.528
318.883
318.295
317.755
317.257
316.793
316.357
315.944
315.55
315.17
314.803
314.445
314.096
313.753
313.415
313.081
312.751
349.241
347.724
346.209
344.697
343.19
341.69
340.198
338.717
337.25
335.799
334.369
332.963
331.586
330.244
328.943
327.689
326.488
325.347
324.271
323.264
322.327
321.462
320.665
319.933
319.26
318.642
318.071
317.541
317.046
316.581
316.141
315.722
315.32
314.933
314.559
314.194
313.837
313.488
313.144
312.805
349.248
347.745
346.244
344.747
343.256
341.773
340.3
338.839
337.393
335.965
334.559
333.179
331.829
330.513
329.239
328.009
326.831
325.708
324.645
323.644
322.708
321.836
321.027
320.277
319.584
318.941
318.345
317.789
317.269
316.78
316.317
315.877
315.456
315.052
314.662
314.283
313.915
313.555
313.202
312.855
349.254
347.764
346.276
344.792
343.315
341.847
340.389
338.945
337.517
336.109
334.723
333.364
332.036
330.743
329.489
328.279
327.118
326.009
324.956
323.961
323.025
322.148
321.329
320.567
319.857
319.195
318.579
318.002
317.461
316.952
316.47
316.012
315.576
315.157
314.753
314.363
313.984
313.614
313.253
312.899
349.26
347.78
346.302
344.83
343.365
341.909
340.465
339.035
337.623
336.23
334.861
333.519
332.208
330.932
329.695
328.5
327.352
326.254
325.209
324.218
323.282
322.402
321.576
320.803
320.08
319.404
318.772
318.179
317.622
317.096
316.599
316.127
315.677
315.246
314.831
314.431
314.043
313.666
313.298
312.938
349.264
347.793
346.324
344.861
343.406
341.96
340.527
339.108
337.707
336.327
334.972
333.643
332.345
331.083
329.858
328.675
327.537
326.447
325.407
324.419
323.484
322.601
321.77
320.989
320.257
319.57
318.926
318.32
317.751
317.213
316.704
316.22
315.759
315.319
314.895
314.487
314.092
313.708
313.335
312.97
349.267
347.803
346.341
344.885
343.437
341.999
340.574
339.163
337.772
336.401
335.055
333.736
332.448
331.195
329.979
328.805
327.674
326.59
325.554
324.568
323.632
322.748
321.913
321.128
320.388
319.694
319.041
318.426
317.847
317.3
316.782
316.291
315.822
315.374
314.944
314.529
314.129
313.741
313.363
312.994
349.269
347.809
346.352
344.901
343.458
342.025
340.605
339.201
337.815
336.45
335.11
333.798
332.517
331.27
330.06
328.891
327.765
326.684
325.651
324.666
323.731
322.845
322.008
321.219
320.475
319.776
319.117
318.497
317.912
317.359
316.835
316.338
315.864
315.411
314.976
314.558
314.154
313.763
313.382
313.011
349.27
347.813
346.358
344.909
343.468
342.038
340.621
339.219
337.836
336.475
335.138
333.829
332.551
331.307
330.1
328.933
327.81
326.731
325.699
324.715
323.78
322.893
322.055
321.264
320.519
319.817
319.155
318.532
317.944
317.388
316.862
316.361
315.885
315.43
314.993
314.573
314.167
313.774
313.392
313.019
)
;

boundaryField
{
    topWall
    {
        type            zeroGradient;
    }
    leftWall
    {
        type            fixedValue;
        value           uniform 350;
    }
    bottomWall
    {
        type            zeroGradient;
    }
    frontAndBack
    {
        type            empty;
    }
    air_to_solid
    {
        type            compressible::turbulentTemperatureCoupledBaffleMixed;
        refValue        nonuniform List<scalar> 
40
(
312.655
312.648
312.634
312.612
312.585
312.552
312.513
312.47
312.424
312.375
312.325
312.275
312.227
312.18
312.138
312.101
312.069
312.045
312.028
312.019
312.019
312.028
312.045
312.069
312.101
312.138
312.18
312.227
312.275
312.325
312.375
312.424
312.47
312.513
312.552
312.585
312.612
312.634
312.648
312.655
)
;
        refGradient     uniform 0;
        valueFraction   nonuniform List<scalar> 
40
(
0.5
0.5
0.5
0.5
0.5
0.5
0.5
0.5
0.5
0.5
0.5
0.5
0.5
0.5
0.5
0.5
0.5
0.5
0.5
0.5
0.5
0.5
0.5
0.5
0.5
0.5
0.5
0.5
0.5
0.5
0.5
0.5
0.5
0.5
0.5
0.5
0.5
0.5
0.5
0.5
)
;
        value           nonuniform List<scalar> 
40
(
312.837
312.829
312.814
312.791
312.762
312.726
312.684
312.638
312.587
312.535
312.481
312.426
312.373
312.323
312.277
312.236
312.202
312.175
312.157
312.147
312.147
312.157
312.175
312.202
312.236
312.277
312.323
312.373
312.426
312.481
312.535
312.587
312.638
312.684
312.726
312.762
312.791
312.814
312.829
312.837
)
;
        Tnbr            Tsolid;
        thicknessLayers 0();
        kappaLayers     0();
        kappaMethod     lookup;
        kappa           kappaAir;
        alphaAni        Anialpha;
    }
}


// ************************************************************************* //
