/*--------------------------------*- C++ -*----------------------------------*\
  =========                 |
  \\      /  F ield         | OpenFOAM: The Open Source CFD Toolbox
   \\    /   O peration     | Website:  https://openfoam.org
    \\  /    A nd           | Version:  7
     \\/     M anipulation  |
\*---------------------------------------------------------------------------*/
FoamFile
{
    version     2.0;
    format      ascii;
    class       volScalarField;
    location    "1e-12";
    object      ne;
}
// * * * * * * * * * * * * * * * * * * * * * * * * * * * * * * * * * * * * * //

dimensions      [0 -3 0 0 0 0 0];

internalField   nonuniform List<scalar> 
14934
(
1.04898e+13
1.04785e+13
1.04678e+13
1.04576e+13
1.04478e+13
1.04384e+13
1.04293e+13
1.04205e+13
1.0412e+13
1.04038e+13
1.03959e+13
1.03883e+13
1.03809e+13
1.03737e+13
1.03667e+13
1.036e+13
1.03534e+13
1.0347e+13
1.03409e+13
1.03349e+13
1.0329e+13
1.03233e+13
1.03178e+13
1.03124e+13
1.03072e+13
1.0302e+13
1.02971e+13
1.02922e+13
1.02875e+13
1.02829e+13
1.02783e+13
1.02739e+13
1.02696e+13
1.02654e+13
1.02613e+13
1.02573e+13
1.02534e+13
1.02496e+13
1.02458e+13
1.02422e+13
1.02386e+13
1.02351e+13
1.02316e+13
1.02282e+13
1.02249e+13
1.02217e+13
1.02185e+13
1.02154e+13
1.02124e+13
1.02094e+13
1.02065e+13
1.02036e+13
1.02008e+13
1.01981e+13
1.01954e+13
1.01927e+13
1.01901e+13
1.01875e+13
1.0185e+13
1.01826e+13
1.01801e+13
1.01778e+13
1.01754e+13
1.01731e+13
1.01709e+13
1.01687e+13
1.01665e+13
1.01644e+13
1.01623e+13
1.01602e+13
1.01582e+13
1.01562e+13
1.01542e+13
1.01523e+13
1.01504e+13
1.01485e+13
1.01467e+13
1.01449e+13
1.01431e+13
1.01414e+13
1.01396e+13
1.01379e+13
1.01363e+13
1.01346e+13
1.0133e+13
1.01314e+13
1.01299e+13
1.01283e+13
1.01268e+13
1.01253e+13
1.01236e+13
1.01216e+13
1.01194e+13
1.01169e+13
1.01143e+13
1.0112e+13
1.01105e+13
1.04883e+13
1.04772e+13
1.04668e+13
1.04567e+13
1.0447e+13
1.04377e+13
1.04286e+13
1.04199e+13
1.04115e+13
1.04033e+13
1.03954e+13
1.03878e+13
1.03804e+13
1.03732e+13
1.03663e+13
1.03595e+13
1.0353e+13
1.03466e+13
1.03405e+13
1.03345e+13
1.03286e+13
1.03229e+13
1.03174e+13
1.0312e+13
1.03068e+13
1.03017e+13
1.02967e+13
1.02918e+13
1.02871e+13
1.02825e+13
1.0278e+13
1.02736e+13
1.02693e+13
1.02651e+13
1.0261e+13
1.0257e+13
1.0253e+13
1.02492e+13
1.02454e+13
1.02418e+13
1.02382e+13
1.02347e+13
1.02312e+13
1.02279e+13
1.02246e+13
1.02213e+13
1.02181e+13
1.0215e+13
1.0212e+13
1.0209e+13
1.02061e+13
1.02032e+13
1.02004e+13
1.01976e+13
1.01949e+13
1.01923e+13
1.01897e+13
1.01871e+13
1.01846e+13
1.01821e+13
1.01797e+13
1.01773e+13
1.0175e+13
1.01727e+13
1.01704e+13
1.01682e+13
1.0166e+13
1.01639e+13
1.01618e+13
1.01597e+13
1.01576e+13
1.01556e+13
1.01537e+13
1.01517e+13
1.01498e+13
1.0148e+13
1.01461e+13
1.01443e+13
1.01425e+13
1.01408e+13
1.0139e+13
1.01373e+13
1.01357e+13
1.0134e+13
1.01324e+13
1.01308e+13
1.01293e+13
1.01277e+13
1.01262e+13
1.01246e+13
1.01229e+13
1.0121e+13
1.01188e+13
1.01164e+13
1.0114e+13
1.01118e+13
1.01105e+13
1.04842e+13
1.04739e+13
1.0464e+13
1.04543e+13
1.04449e+13
1.04357e+13
1.04269e+13
1.04183e+13
1.041e+13
1.04019e+13
1.03941e+13
1.03866e+13
1.03792e+13
1.03721e+13
1.03652e+13
1.03585e+13
1.0352e+13
1.03457e+13
1.03395e+13
1.03336e+13
1.03278e+13
1.03221e+13
1.03166e+13
1.03112e+13
1.0306e+13
1.03009e+13
1.02959e+13
1.02911e+13
1.02864e+13
1.02818e+13
1.02773e+13
1.02729e+13
1.02686e+13
1.02644e+13
1.02603e+13
1.02563e+13
1.02524e+13
1.02485e+13
1.02448e+13
1.02411e+13
1.02375e+13
1.0234e+13
1.02306e+13
1.02272e+13
1.02239e+13
1.02207e+13
1.02175e+13
1.02144e+13
1.02113e+13
1.02084e+13
1.02054e+13
1.02026e+13
1.01997e+13
1.0197e+13
1.01943e+13
1.01916e+13
1.0189e+13
1.01864e+13
1.01839e+13
1.01814e+13
1.0179e+13
1.01766e+13
1.01743e+13
1.0172e+13
1.01697e+13
1.01675e+13
1.01653e+13
1.01632e+13
1.01611e+13
1.0159e+13
1.01569e+13
1.01549e+13
1.0153e+13
1.0151e+13
1.01491e+13
1.01472e+13
1.01454e+13
1.01436e+13
1.01418e+13
1.014e+13
1.01383e+13
1.01366e+13
1.01349e+13
1.01333e+13
1.01316e+13
1.013e+13
1.01285e+13
1.01269e+13
1.01254e+13
1.01238e+13
1.01221e+13
1.01203e+13
1.01182e+13
1.01159e+13
1.01137e+13
1.01117e+13
1.01102e+13
1.04779e+13
1.04686e+13
1.04594e+13
1.04503e+13
1.04413e+13
1.04326e+13
1.0424e+13
1.04157e+13
1.04076e+13
1.03997e+13
1.0392e+13
1.03846e+13
1.03774e+13
1.03704e+13
1.03636e+13
1.03569e+13
1.03505e+13
1.03442e+13
1.03382e+13
1.03322e+13
1.03265e+13
1.03209e+13
1.03154e+13
1.03101e+13
1.03049e+13
1.02998e+13
1.02949e+13
1.029e+13
1.02853e+13
1.02808e+13
1.02763e+13
1.02719e+13
1.02676e+13
1.02634e+13
1.02594e+13
1.02554e+13
1.02515e+13
1.02477e+13
1.02439e+13
1.02403e+13
1.02367e+13
1.02332e+13
1.02297e+13
1.02264e+13
1.02231e+13
1.02199e+13
1.02167e+13
1.02136e+13
1.02106e+13
1.02076e+13
1.02047e+13
1.02018e+13
1.0199e+13
1.01962e+13
1.01935e+13
1.01909e+13
1.01883e+13
1.01857e+13
1.01832e+13
1.01807e+13
1.01783e+13
1.01759e+13
1.01736e+13
1.01713e+13
1.0169e+13
1.01668e+13
1.01646e+13
1.01625e+13
1.01604e+13
1.01583e+13
1.01562e+13
1.01542e+13
1.01523e+13
1.01503e+13
1.01484e+13
1.01465e+13
1.01447e+13
1.01429e+13
1.01411e+13
1.01393e+13
1.01376e+13
1.01359e+13
1.01342e+13
1.01326e+13
1.01309e+13
1.01294e+13
1.01278e+13
1.01262e+13
1.01247e+13
1.01231e+13
1.01215e+13
1.01197e+13
1.01176e+13
1.01155e+13
1.01135e+13
1.01117e+13
1.01103e+13
1.04694e+13
1.04614e+13
1.04532e+13
1.04448e+13
1.04364e+13
1.04282e+13
1.042e+13
1.0412e+13
1.04042e+13
1.03966e+13
1.03891e+13
1.03819e+13
1.03748e+13
1.0368e+13
1.03613e+13
1.03548e+13
1.03484e+13
1.03423e+13
1.03363e+13
1.03304e+13
1.03247e+13
1.03192e+13
1.03137e+13
1.03085e+13
1.03033e+13
1.02983e+13
1.02934e+13
1.02886e+13
1.0284e+13
1.02794e+13
1.0275e+13
1.02706e+13
1.02664e+13
1.02622e+13
1.02582e+13
1.02542e+13
1.02503e+13
1.02465e+13
1.02428e+13
1.02392e+13
1.02356e+13
1.02321e+13
1.02287e+13
1.02254e+13
1.02221e+13
1.02189e+13
1.02157e+13
1.02127e+13
1.02096e+13
1.02067e+13
1.02038e+13
1.02009e+13
1.01981e+13
1.01953e+13
1.01927e+13
1.019e+13
1.01874e+13
1.01848e+13
1.01823e+13
1.01799e+13
1.01775e+13
1.01751e+13
1.01728e+13
1.01705e+13
1.01682e+13
1.0166e+13
1.01638e+13
1.01617e+13
1.01596e+13
1.01575e+13
1.01555e+13
1.01535e+13
1.01515e+13
1.01496e+13
1.01477e+13
1.01458e+13
1.01439e+13
1.01421e+13
1.01403e+13
1.01386e+13
1.01369e+13
1.01352e+13
1.01335e+13
1.01318e+13
1.01302e+13
1.01286e+13
1.01271e+13
1.01255e+13
1.0124e+13
1.01225e+13
1.01208e+13
1.0119e+13
1.01171e+13
1.0115e+13
1.01132e+13
1.01116e+13
1.01104e+13
1.04591e+13
1.04524e+13
1.04453e+13
1.04378e+13
1.04302e+13
1.04225e+13
1.04148e+13
1.04073e+13
1.03998e+13
1.03925e+13
1.03853e+13
1.03783e+13
1.03715e+13
1.03648e+13
1.03583e+13
1.03519e+13
1.03457e+13
1.03397e+13
1.03338e+13
1.0328e+13
1.03224e+13
1.0317e+13
1.03116e+13
1.03064e+13
1.03014e+13
1.02964e+13
1.02916e+13
1.02868e+13
1.02822e+13
1.02777e+13
1.02733e+13
1.0269e+13
1.02648e+13
1.02607e+13
1.02567e+13
1.02527e+13
1.02489e+13
1.02451e+13
1.02414e+13
1.02378e+13
1.02343e+13
1.02308e+13
1.02274e+13
1.02241e+13
1.02209e+13
1.02177e+13
1.02145e+13
1.02115e+13
1.02085e+13
1.02055e+13
1.02026e+13
1.01998e+13
1.0197e+13
1.01943e+13
1.01916e+13
1.01889e+13
1.01864e+13
1.01838e+13
1.01813e+13
1.01789e+13
1.01765e+13
1.01741e+13
1.01718e+13
1.01695e+13
1.01672e+13
1.0165e+13
1.01629e+13
1.01607e+13
1.01586e+13
1.01566e+13
1.01545e+13
1.01526e+13
1.01506e+13
1.01487e+13
1.01468e+13
1.01449e+13
1.01431e+13
1.01413e+13
1.01395e+13
1.01377e+13
1.0136e+13
1.01343e+13
1.01326e+13
1.0131e+13
1.01294e+13
1.01278e+13
1.01263e+13
1.01247e+13
1.01232e+13
1.01217e+13
1.01201e+13
1.01184e+13
1.01165e+13
1.01146e+13
1.01128e+13
1.01113e+13
1.01102e+13
1.04473e+13
1.04418e+13
1.04358e+13
1.04293e+13
1.04225e+13
1.04155e+13
1.04085e+13
1.04014e+13
1.03944e+13
1.03875e+13
1.03807e+13
1.0374e+13
1.03674e+13
1.03609e+13
1.03546e+13
1.03484e+13
1.03424e+13
1.03365e+13
1.03308e+13
1.03251e+13
1.03196e+13
1.03143e+13
1.03091e+13
1.03039e+13
1.0299e+13
1.02941e+13
1.02893e+13
1.02847e+13
1.02801e+13
1.02757e+13
1.02713e+13
1.02671e+13
1.02629e+13
1.02588e+13
1.02549e+13
1.0251e+13
1.02472e+13
1.02434e+13
1.02398e+13
1.02362e+13
1.02327e+13
1.02293e+13
1.02259e+13
1.02226e+13
1.02194e+13
1.02162e+13
1.02131e+13
1.02101e+13
1.02071e+13
1.02042e+13
1.02013e+13
1.01985e+13
1.01957e+13
1.0193e+13
1.01903e+13
1.01877e+13
1.01851e+13
1.01826e+13
1.01801e+13
1.01777e+13
1.01753e+13
1.01729e+13
1.01706e+13
1.01684e+13
1.01661e+13
1.01639e+13
1.01618e+13
1.01597e+13
1.01576e+13
1.01555e+13
1.01535e+13
1.01515e+13
1.01496e+13
1.01477e+13
1.01458e+13
1.01439e+13
1.01421e+13
1.01403e+13
1.01385e+13
1.01368e+13
1.01351e+13
1.01334e+13
1.01318e+13
1.01301e+13
1.01285e+13
1.0127e+13
1.01254e+13
1.01239e+13
1.01224e+13
1.01209e+13
1.01194e+13
1.01177e+13
1.0116e+13
1.01141e+13
1.01124e+13
1.01108e+13
1.01096e+13
1.04345e+13
1.04301e+13
1.04252e+13
1.04196e+13
1.04137e+13
1.04074e+13
1.0401e+13
1.03946e+13
1.03881e+13
1.03816e+13
1.03751e+13
1.03688e+13
1.03625e+13
1.03563e+13
1.03502e+13
1.03443e+13
1.03385e+13
1.03328e+13
1.03272e+13
1.03217e+13
1.03163e+13
1.03111e+13
1.0306e+13
1.0301e+13
1.02961e+13
1.02913e+13
1.02867e+13
1.02821e+13
1.02776e+13
1.02732e+13
1.0269e+13
1.02648e+13
1.02607e+13
1.02567e+13
1.02528e+13
1.02489e+13
1.02452e+13
1.02415e+13
1.02379e+13
1.02343e+13
1.02309e+13
1.02275e+13
1.02242e+13
1.02209e+13
1.02177e+13
1.02146e+13
1.02115e+13
1.02085e+13
1.02055e+13
1.02026e+13
1.01998e+13
1.0197e+13
1.01942e+13
1.01916e+13
1.01889e+13
1.01863e+13
1.01838e+13
1.01813e+13
1.01788e+13
1.01764e+13
1.0174e+13
1.01717e+13
1.01694e+13
1.01672e+13
1.01649e+13
1.01628e+13
1.01606e+13
1.01585e+13
1.01565e+13
1.01544e+13
1.01524e+13
1.01505e+13
1.01485e+13
1.01466e+13
1.01448e+13
1.01429e+13
1.01411e+13
1.01394e+13
1.01376e+13
1.01359e+13
1.01342e+13
1.01325e+13
1.01309e+13
1.01293e+13
1.01277e+13
1.01262e+13
1.01246e+13
1.01231e+13
1.01217e+13
1.01202e+13
1.01187e+13
1.01171e+13
1.01155e+13
1.01137e+13
1.0112e+13
1.01104e+13
1.01091e+13
1.04212e+13
1.04177e+13
1.04136e+13
1.04089e+13
1.04038e+13
1.03983e+13
1.03926e+13
1.03867e+13
1.03808e+13
1.03748e+13
1.03688e+13
1.03628e+13
1.03569e+13
1.0351e+13
1.03452e+13
1.03395e+13
1.03339e+13
1.03284e+13
1.0323e+13
1.03177e+13
1.03125e+13
1.03075e+13
1.03025e+13
1.02976e+13
1.02929e+13
1.02882e+13
1.02836e+13
1.02791e+13
1.02748e+13
1.02705e+13
1.02663e+13
1.02622e+13
1.02582e+13
1.02542e+13
1.02504e+13
1.02466e+13
1.02429e+13
1.02393e+13
1.02357e+13
1.02322e+13
1.02288e+13
1.02255e+13
1.02222e+13
1.0219e+13
1.02158e+13
1.02127e+13
1.02097e+13
1.02067e+13
1.02038e+13
1.0201e+13
1.01981e+13
1.01954e+13
1.01927e+13
1.019e+13
1.01874e+13
1.01848e+13
1.01823e+13
1.01799e+13
1.01774e+13
1.0175e+13
1.01727e+13
1.01704e+13
1.01681e+13
1.01659e+13
1.01637e+13
1.01616e+13
1.01595e+13
1.01574e+13
1.01554e+13
1.01533e+13
1.01514e+13
1.01494e+13
1.01475e+13
1.01457e+13
1.01438e+13
1.0142e+13
1.01402e+13
1.01385e+13
1.01367e+13
1.0135e+13
1.01334e+13
1.01317e+13
1.01301e+13
1.01285e+13
1.0127e+13
1.01254e+13
1.01239e+13
1.01225e+13
1.0121e+13
1.01196e+13
1.01182e+13
1.01166e+13
1.0115e+13
1.01134e+13
1.01117e+13
1.01102e+13
1.0109e+13
1.04081e+13
1.04052e+13
1.04018e+13
1.03978e+13
1.03933e+13
1.03885e+13
1.03835e+13
1.03782e+13
1.03728e+13
1.03672e+13
1.03617e+13
1.03561e+13
1.03506e+13
1.0345e+13
1.03396e+13
1.03341e+13
1.03288e+13
1.03235e+13
1.03184e+13
1.03133e+13
1.03083e+13
1.03034e+13
1.02986e+13
1.02938e+13
1.02892e+13
1.02847e+13
1.02802e+13
1.02759e+13
1.02716e+13
1.02674e+13
1.02633e+13
1.02593e+13
1.02554e+13
1.02515e+13
1.02477e+13
1.0244e+13
1.02404e+13
1.02369e+13
1.02334e+13
1.023e+13
1.02266e+13
1.02233e+13
1.02201e+13
1.02169e+13
1.02138e+13
1.02108e+13
1.02078e+13
1.02049e+13
1.0202e+13
1.01992e+13
1.01964e+13
1.01937e+13
1.0191e+13
1.01884e+13
1.01859e+13
1.01833e+13
1.01809e+13
1.01784e+13
1.0176e+13
1.01737e+13
1.01714e+13
1.01691e+13
1.01669e+13
1.01647e+13
1.01625e+13
1.01604e+13
1.01583e+13
1.01563e+13
1.01543e+13
1.01523e+13
1.01504e+13
1.01485e+13
1.01466e+13
1.01447e+13
1.01429e+13
1.01411e+13
1.01394e+13
1.01377e+13
1.0136e+13
1.01343e+13
1.01327e+13
1.0131e+13
1.01295e+13
1.01279e+13
1.01264e+13
1.01248e+13
1.01234e+13
1.01219e+13
1.01205e+13
1.01191e+13
1.01177e+13
1.01162e+13
1.01146e+13
1.0113e+13
1.01115e+13
1.01102e+13
1.01091e+13
1.03954e+13
1.03929e+13
1.039e+13
1.03866e+13
1.03827e+13
1.03785e+13
1.03739e+13
1.03692e+13
1.03643e+13
1.03592e+13
1.03541e+13
1.03489e+13
1.03438e+13
1.03386e+13
1.03334e+13
1.03283e+13
1.03233e+13
1.03183e+13
1.03133e+13
1.03084e+13
1.03036e+13
1.02989e+13
1.02943e+13
1.02897e+13
1.02853e+13
1.02809e+13
1.02766e+13
1.02723e+13
1.02682e+13
1.02641e+13
1.02601e+13
1.02562e+13
1.02524e+13
1.02486e+13
1.02449e+13
1.02413e+13
1.02378e+13
1.02343e+13
1.02309e+13
1.02276e+13
1.02243e+13
1.02211e+13
1.02179e+13
1.02148e+13
1.02118e+13
1.02088e+13
1.02059e+13
1.0203e+13
1.02002e+13
1.01974e+13
1.01947e+13
1.0192e+13
1.01894e+13
1.01868e+13
1.01843e+13
1.01818e+13
1.01794e+13
1.0177e+13
1.01747e+13
1.01723e+13
1.01701e+13
1.01679e+13
1.01657e+13
1.01635e+13
1.01614e+13
1.01593e+13
1.01573e+13
1.01553e+13
1.01533e+13
1.01514e+13
1.01494e+13
1.01476e+13
1.01457e+13
1.01439e+13
1.01421e+13
1.01404e+13
1.01387e+13
1.0137e+13
1.01353e+13
1.01336e+13
1.0132e+13
1.01304e+13
1.01289e+13
1.01273e+13
1.01258e+13
1.01243e+13
1.01229e+13
1.01214e+13
1.012e+13
1.01187e+13
1.01172e+13
1.01158e+13
1.01143e+13
1.01128e+13
1.01113e+13
1.01101e+13
1.01091e+13
1.03832e+13
1.03812e+13
1.03786e+13
1.03756e+13
1.03722e+13
1.03684e+13
1.03644e+13
1.03601e+13
1.03556e+13
1.0351e+13
1.03463e+13
1.03415e+13
1.03367e+13
1.03319e+13
1.0327e+13
1.03222e+13
1.03174e+13
1.03127e+13
1.0308e+13
1.03033e+13
1.02988e+13
1.02942e+13
1.02898e+13
1.02854e+13
1.02811e+13
1.02769e+13
1.02727e+13
1.02686e+13
1.02646e+13
1.02607e+13
1.02568e+13
1.0253e+13
1.02493e+13
1.02456e+13
1.0242e+13
1.02385e+13
1.02351e+13
1.02317e+13
1.02283e+13
1.02251e+13
1.02219e+13
1.02187e+13
1.02157e+13
1.02126e+13
1.02097e+13
1.02067e+13
1.02039e+13
1.02011e+13
1.01983e+13
1.01956e+13
1.0193e+13
1.01903e+13
1.01878e+13
1.01853e+13
1.01828e+13
1.01804e+13
1.0178e+13
1.01756e+13
1.01733e+13
1.01711e+13
1.01688e+13
1.01666e+13
1.01645e+13
1.01624e+13
1.01603e+13
1.01583e+13
1.01563e+13
1.01543e+13
1.01524e+13
1.01505e+13
1.01486e+13
1.01467e+13
1.01449e+13
1.01431e+13
1.01414e+13
1.01397e+13
1.0138e+13
1.01363e+13
1.01346e+13
1.0133e+13
1.01314e+13
1.01299e+13
1.01283e+13
1.01268e+13
1.01253e+13
1.01239e+13
1.01224e+13
1.0121e+13
1.01196e+13
1.01182e+13
1.01169e+13
1.01154e+13
1.0114e+13
1.01125e+13
1.01111e+13
1.01099e+13
1.01088e+13
1.03715e+13
1.03698e+13
1.03677e+13
1.0365e+13
1.0362e+13
1.03586e+13
1.0355e+13
1.03511e+13
1.0347e+13
1.03428e+13
1.03385e+13
1.0334e+13
1.03296e+13
1.0325e+13
1.03205e+13
1.0316e+13
1.03115e+13
1.0307e+13
1.03025e+13
1.02981e+13
1.02937e+13
1.02894e+13
1.02852e+13
1.0281e+13
1.02768e+13
1.02728e+13
1.02688e+13
1.02648e+13
1.02609e+13
1.02571e+13
1.02534e+13
1.02497e+13
1.02461e+13
1.02426e+13
1.02391e+13
1.02357e+13
1.02323e+13
1.0229e+13
1.02258e+13
1.02226e+13
1.02195e+13
1.02164e+13
1.02134e+13
1.02105e+13
1.02076e+13
1.02047e+13
1.02019e+13
1.01992e+13
1.01965e+13
1.01938e+13
1.01912e+13
1.01887e+13
1.01862e+13
1.01837e+13
1.01813e+13
1.01789e+13
1.01766e+13
1.01743e+13
1.0172e+13
1.01698e+13
1.01676e+13
1.01655e+13
1.01634e+13
1.01613e+13
1.01593e+13
1.01573e+13
1.01553e+13
1.01534e+13
1.01515e+13
1.01496e+13
1.01477e+13
1.01459e+13
1.01441e+13
1.01424e+13
1.01407e+13
1.0139e+13
1.01373e+13
1.01356e+13
1.0134e+13
1.01324e+13
1.01309e+13
1.01293e+13
1.01278e+13
1.01263e+13
1.01248e+13
1.01234e+13
1.0122e+13
1.01206e+13
1.01192e+13
1.01178e+13
1.01165e+13
1.01151e+13
1.01137e+13
1.01122e+13
1.01109e+13
1.01097e+13
1.01085e+13
1.03613e+13
1.03603e+13
1.0359e+13
1.03571e+13
1.03548e+13
1.03521e+13
1.03491e+13
1.03458e+13
1.03423e+13
1.03386e+13
1.03347e+13
1.03307e+13
1.03266e+13
1.03225e+13
1.03183e+13
1.0314e+13
1.03098e+13
1.03055e+13
1.03013e+13
1.0297e+13
1.02929e+13
1.02887e+13
1.02846e+13
1.02805e+13
1.02765e+13
1.02725e+13
1.02686e+13
1.02648e+13
1.0261e+13
1.02573e+13
1.02536e+13
1.025e+13
1.02464e+13
1.02429e+13
1.02395e+13
1.02361e+13
1.02328e+13
1.02296e+13
1.02264e+13
1.02232e+13
1.02201e+13
1.02171e+13
1.02141e+13
1.02112e+13
1.02083e+13
1.02055e+13
1.02027e+13
1.02e+13
1.01973e+13
1.01947e+13
1.01921e+13
1.01896e+13
1.01871e+13
1.01846e+13
1.01822e+13
1.01798e+13
1.01775e+13
1.01752e+13
1.0173e+13
1.01707e+13
1.01686e+13
1.01664e+13
1.01643e+13
1.01623e+13
1.01602e+13
1.01582e+13
1.01563e+13
1.01543e+13
1.01524e+13
1.01506e+13
1.01487e+13
1.01469e+13
1.01451e+13
1.01434e+13
1.01416e+13
1.01399e+13
1.01383e+13
1.01366e+13
1.0135e+13
1.01334e+13
1.01318e+13
1.01303e+13
1.01288e+13
1.01273e+13
1.01258e+13
1.01243e+13
1.01229e+13
1.01215e+13
1.01201e+13
1.01188e+13
1.01174e+13
1.01161e+13
1.01147e+13
1.01133e+13
1.01119e+13
1.01106e+13
1.01095e+13
1.01084e+13
1.03504e+13
1.03497e+13
1.03485e+13
1.03469e+13
1.03449e+13
1.03426e+13
1.03399e+13
1.0337e+13
1.03338e+13
1.03304e+13
1.03268e+13
1.03232e+13
1.03194e+13
1.03155e+13
1.03116e+13
1.03076e+13
1.03036e+13
1.02996e+13
1.02956e+13
1.02916e+13
1.02876e+13
1.02837e+13
1.02798e+13
1.02759e+13
1.02721e+13
1.02683e+13
1.02645e+13
1.02608e+13
1.02572e+13
1.02536e+13
1.02501e+13
1.02466e+13
1.02432e+13
1.02398e+13
1.02365e+13
1.02332e+13
1.023e+13
1.02268e+13
1.02237e+13
1.02207e+13
1.02177e+13
1.02147e+13
1.02118e+13
1.0209e+13
1.02062e+13
1.02034e+13
1.02007e+13
1.01981e+13
1.01955e+13
1.01929e+13
1.01904e+13
1.01879e+13
1.01854e+13
1.0183e+13
1.01807e+13
1.01784e+13
1.01761e+13
1.01738e+13
1.01716e+13
1.01695e+13
1.01673e+13
1.01652e+13
1.01632e+13
1.01611e+13
1.01591e+13
1.01572e+13
1.01553e+13
1.01534e+13
1.01515e+13
1.01496e+13
1.01478e+13
1.0146e+13
1.01443e+13
1.01426e+13
1.01409e+13
1.01392e+13
1.01375e+13
1.01359e+13
1.01343e+13
1.01327e+13
1.01312e+13
1.01297e+13
1.01282e+13
1.01267e+13
1.01252e+13
1.01238e+13
1.01224e+13
1.0121e+13
1.01196e+13
1.01183e+13
1.0117e+13
1.01156e+13
1.01143e+13
1.01129e+13
1.01116e+13
1.01103e+13
1.01093e+13
1.01082e+13
1.034e+13
1.03395e+13
1.03385e+13
1.03372e+13
1.03354e+13
1.03334e+13
1.0331e+13
1.03283e+13
1.03255e+13
1.03224e+13
1.03191e+13
1.03157e+13
1.03122e+13
1.03087e+13
1.0305e+13
1.03013e+13
1.02976e+13
1.02938e+13
1.029e+13
1.02862e+13
1.02825e+13
1.02787e+13
1.0275e+13
1.02713e+13
1.02677e+13
1.0264e+13
1.02605e+13
1.02569e+13
1.02534e+13
1.025e+13
1.02466e+13
1.02432e+13
1.02399e+13
1.02366e+13
1.02334e+13
1.02303e+13
1.02272e+13
1.02241e+13
1.02211e+13
1.02181e+13
1.02152e+13
1.02124e+13
1.02095e+13
1.02068e+13
1.0204e+13
1.02014e+13
1.01987e+13
1.01961e+13
1.01936e+13
1.01911e+13
1.01886e+13
1.01862e+13
1.01838e+13
1.01815e+13
1.01792e+13
1.01769e+13
1.01747e+13
1.01725e+13
1.01703e+13
1.01682e+13
1.01661e+13
1.0164e+13
1.0162e+13
1.016e+13
1.0158e+13
1.01561e+13
1.01542e+13
1.01523e+13
1.01505e+13
1.01487e+13
1.01469e+13
1.01452e+13
1.01434e+13
1.01417e+13
1.01401e+13
1.01384e+13
1.01368e+13
1.01352e+13
1.01336e+13
1.01321e+13
1.01305e+13
1.0129e+13
1.01276e+13
1.01261e+13
1.01247e+13
1.01232e+13
1.01218e+13
1.01205e+13
1.01191e+13
1.01178e+13
1.01165e+13
1.01151e+13
1.01138e+13
1.01125e+13
1.01112e+13
1.011e+13
1.01089e+13
1.0108e+13
1.03301e+13
1.03298e+13
1.0329e+13
1.03278e+13
1.03263e+13
1.03245e+13
1.03223e+13
1.032e+13
1.03174e+13
1.03146e+13
1.03116e+13
1.03085e+13
1.03053e+13
1.03019e+13
1.02986e+13
1.02951e+13
1.02916e+13
1.02881e+13
1.02845e+13
1.02809e+13
1.02774e+13
1.02738e+13
1.02703e+13
1.02668e+13
1.02633e+13
1.02598e+13
1.02564e+13
1.0253e+13
1.02497e+13
1.02463e+13
1.02431e+13
1.02398e+13
1.02366e+13
1.02335e+13
1.02304e+13
1.02274e+13
1.02243e+13
1.02214e+13
1.02185e+13
1.02156e+13
1.02128e+13
1.021e+13
1.02072e+13
1.02046e+13
1.02019e+13
1.01993e+13
1.01967e+13
1.01942e+13
1.01917e+13
1.01893e+13
1.01869e+13
1.01845e+13
1.01822e+13
1.01799e+13
1.01776e+13
1.01754e+13
1.01732e+13
1.01711e+13
1.01689e+13
1.01669e+13
1.01648e+13
1.01628e+13
1.01608e+13
1.01588e+13
1.01569e+13
1.0155e+13
1.01532e+13
1.01513e+13
1.01495e+13
1.01477e+13
1.0146e+13
1.01443e+13
1.01426e+13
1.01409e+13
1.01392e+13
1.01376e+13
1.0136e+13
1.01344e+13
1.01329e+13
1.01314e+13
1.01298e+13
1.01284e+13
1.01269e+13
1.01255e+13
1.0124e+13
1.01226e+13
1.01213e+13
1.01199e+13
1.01186e+13
1.01172e+13
1.01159e+13
1.01146e+13
1.01133e+13
1.0112e+13
1.01107e+13
1.01095e+13
1.01085e+13
1.01076e+13
1.03207e+13
1.03207e+13
1.03198e+13
1.03189e+13
1.03175e+13
1.03159e+13
1.0314e+13
1.03119e+13
1.03095e+13
1.0307e+13
1.03043e+13
1.03014e+13
1.02984e+13
1.02954e+13
1.02922e+13
1.0289e+13
1.02857e+13
1.02824e+13
1.02791e+13
1.02757e+13
1.02723e+13
1.0269e+13
1.02656e+13
1.02623e+13
1.0259e+13
1.02557e+13
1.02524e+13
1.02491e+13
1.02459e+13
1.02427e+13
1.02396e+13
1.02365e+13
1.02334e+13
1.02304e+13
1.02274e+13
1.02244e+13
1.02215e+13
1.02187e+13
1.02158e+13
1.02131e+13
1.02103e+13
1.02076e+13
1.02049e+13
1.02023e+13
1.01997e+13
1.01972e+13
1.01947e+13
1.01922e+13
1.01898e+13
1.01874e+13
1.01851e+13
1.01828e+13
1.01805e+13
1.01783e+13
1.0176e+13
1.01739e+13
1.01717e+13
1.01696e+13
1.01676e+13
1.01655e+13
1.01635e+13
1.01615e+13
1.01596e+13
1.01577e+13
1.01558e+13
1.01539e+13
1.01521e+13
1.01503e+13
1.01485e+13
1.01467e+13
1.0145e+13
1.01433e+13
1.01416e+13
1.014e+13
1.01384e+13
1.01368e+13
1.01352e+13
1.01336e+13
1.01321e+13
1.01306e+13
1.01291e+13
1.01277e+13
1.01262e+13
1.01248e+13
1.01234e+13
1.0122e+13
1.01207e+13
1.01193e+13
1.0118e+13
1.01167e+13
1.01154e+13
1.01141e+13
1.01128e+13
1.01115e+13
1.01103e+13
1.01091e+13
1.01081e+13
1.01072e+13
1.03118e+13
1.03118e+13
1.03111e+13
1.03103e+13
1.03091e+13
1.03077e+13
1.0306e+13
1.03041e+13
1.0302e+13
1.02996e+13
1.02972e+13
1.02945e+13
1.02918e+13
1.0289e+13
1.0286e+13
1.0283e+13
1.028e+13
1.02769e+13
1.02737e+13
1.02706e+13
1.02674e+13
1.02642e+13
1.0261e+13
1.02578e+13
1.02547e+13
1.02515e+13
1.02484e+13
1.02453e+13
1.02422e+13
1.02391e+13
1.02361e+13
1.02331e+13
1.02302e+13
1.02273e+13
1.02244e+13
1.02215e+13
1.02187e+13
1.02159e+13
1.02132e+13
1.02105e+13
1.02078e+13
1.02052e+13
1.02026e+13
1.02001e+13
1.01976e+13
1.01951e+13
1.01927e+13
1.01903e+13
1.01879e+13
1.01856e+13
1.01833e+13
1.0181e+13
1.01788e+13
1.01766e+13
1.01745e+13
1.01723e+13
1.01703e+13
1.01682e+13
1.01662e+13
1.01642e+13
1.01622e+13
1.01603e+13
1.01583e+13
1.01565e+13
1.01546e+13
1.01528e+13
1.0151e+13
1.01492e+13
1.01475e+13
1.01457e+13
1.0144e+13
1.01424e+13
1.01407e+13
1.01391e+13
1.01375e+13
1.01359e+13
1.01344e+13
1.01328e+13
1.01313e+13
1.01298e+13
1.01284e+13
1.01269e+13
1.01255e+13
1.01241e+13
1.01227e+13
1.01214e+13
1.012e+13
1.01187e+13
1.01174e+13
1.01161e+13
1.01148e+13
1.01135e+13
1.01122e+13
1.0111e+13
1.01098e+13
1.01086e+13
1.01076e+13
1.01067e+13
1.03033e+13
1.03034e+13
1.03028e+13
1.03021e+13
1.03011e+13
1.02998e+13
1.02983e+13
1.02966e+13
1.02946e+13
1.02925e+13
1.02903e+13
1.02879e+13
1.02853e+13
1.02827e+13
1.028e+13
1.02772e+13
1.02743e+13
1.02714e+13
1.02685e+13
1.02655e+13
1.02625e+13
1.02595e+13
1.02564e+13
1.02534e+13
1.02504e+13
1.02474e+13
1.02444e+13
1.02415e+13
1.02385e+13
1.02356e+13
1.02327e+13
1.02298e+13
1.0227e+13
1.02242e+13
1.02214e+13
1.02186e+13
1.02159e+13
1.02132e+13
1.02106e+13
1.0208e+13
1.02054e+13
1.02028e+13
1.02003e+13
1.01979e+13
1.01954e+13
1.0193e+13
1.01907e+13
1.01883e+13
1.0186e+13
1.01837e+13
1.01815e+13
1.01793e+13
1.01771e+13
1.0175e+13
1.01729e+13
1.01708e+13
1.01688e+13
1.01667e+13
1.01648e+13
1.01628e+13
1.01609e+13
1.0159e+13
1.01571e+13
1.01552e+13
1.01534e+13
1.01516e+13
1.01499e+13
1.01481e+13
1.01464e+13
1.01447e+13
1.0143e+13
1.01414e+13
1.01398e+13
1.01382e+13
1.01366e+13
1.01351e+13
1.01335e+13
1.0132e+13
1.01305e+13
1.01291e+13
1.01276e+13
1.01262e+13
1.01248e+13
1.01234e+13
1.01221e+13
1.01207e+13
1.01194e+13
1.01181e+13
1.01168e+13
1.01155e+13
1.01142e+13
1.0113e+13
1.01117e+13
1.01105e+13
1.01093e+13
1.01082e+13
1.0107e+13
1.01061e+13
1.02952e+13
1.02953e+13
1.02948e+13
1.02943e+13
1.02934e+13
1.02923e+13
1.02909e+13
1.02894e+13
1.02876e+13
1.02857e+13
1.02836e+13
1.02814e+13
1.02791e+13
1.02766e+13
1.02741e+13
1.02715e+13
1.02688e+13
1.02661e+13
1.02633e+13
1.02605e+13
1.02577e+13
1.02548e+13
1.0252e+13
1.02491e+13
1.02462e+13
1.02434e+13
1.02405e+13
1.02377e+13
1.02349e+13
1.02321e+13
1.02293e+13
1.02265e+13
1.02238e+13
1.02211e+13
1.02184e+13
1.02157e+13
1.02131e+13
1.02105e+13
1.0208e+13
1.02054e+13
1.02029e+13
1.02005e+13
1.0198e+13
1.01956e+13
1.01933e+13
1.01909e+13
1.01886e+13
1.01864e+13
1.01841e+13
1.01819e+13
1.01797e+13
1.01776e+13
1.01754e+13
1.01734e+13
1.01713e+13
1.01693e+13
1.01673e+13
1.01653e+13
1.01633e+13
1.01614e+13
1.01595e+13
1.01577e+13
1.01558e+13
1.0154e+13
1.01522e+13
1.01505e+13
1.01487e+13
1.0147e+13
1.01453e+13
1.01437e+13
1.0142e+13
1.01404e+13
1.01388e+13
1.01373e+13
1.01357e+13
1.01342e+13
1.01327e+13
1.01312e+13
1.01297e+13
1.01283e+13
1.01269e+13
1.01255e+13
1.01241e+13
1.01227e+13
1.01214e+13
1.012e+13
1.01187e+13
1.01174e+13
1.01162e+13
1.01149e+13
1.01136e+13
1.01124e+13
1.01112e+13
1.011e+13
1.01088e+13
1.01077e+13
1.01065e+13
1.01056e+13
1.02875e+13
1.02876e+13
1.02872e+13
1.02867e+13
1.0286e+13
1.0285e+13
1.02838e+13
1.02824e+13
1.02808e+13
1.02791e+13
1.02772e+13
1.02751e+13
1.0273e+13
1.02707e+13
1.02684e+13
1.02659e+13
1.02634e+13
1.02609e+13
1.02583e+13
1.02556e+13
1.0253e+13
1.02503e+13
1.02476e+13
1.02448e+13
1.02421e+13
1.02394e+13
1.02367e+13
1.0234e+13
1.02313e+13
1.02286e+13
1.02259e+13
1.02233e+13
1.02206e+13
1.0218e+13
1.02154e+13
1.02129e+13
1.02104e+13
1.02079e+13
1.02054e+13
1.02029e+13
1.02005e+13
1.01981e+13
1.01958e+13
1.01934e+13
1.01911e+13
1.01888e+13
1.01866e+13
1.01844e+13
1.01822e+13
1.01801e+13
1.01779e+13
1.01758e+13
1.01738e+13
1.01717e+13
1.01697e+13
1.01677e+13
1.01658e+13
1.01638e+13
1.01619e+13
1.01601e+13
1.01582e+13
1.01564e+13
1.01546e+13
1.01528e+13
1.0151e+13
1.01493e+13
1.01476e+13
1.01459e+13
1.01443e+13
1.01426e+13
1.0141e+13
1.01394e+13
1.01379e+13
1.01363e+13
1.01348e+13
1.01333e+13
1.01318e+13
1.01304e+13
1.01289e+13
1.01275e+13
1.01261e+13
1.01247e+13
1.01234e+13
1.0122e+13
1.01207e+13
1.01194e+13
1.01181e+13
1.01168e+13
1.01156e+13
1.01143e+13
1.01131e+13
1.01118e+13
1.01106e+13
1.01095e+13
1.01083e+13
1.01072e+13
1.0106e+13
1.01051e+13
1.02801e+13
1.02802e+13
1.028e+13
1.02795e+13
1.02789e+13
1.0278e+13
1.02769e+13
1.02757e+13
1.02743e+13
1.02727e+13
1.02709e+13
1.02691e+13
1.02671e+13
1.0265e+13
1.02628e+13
1.02605e+13
1.02582e+13
1.02558e+13
1.02534e+13
1.02509e+13
1.02484e+13
1.02458e+13
1.02432e+13
1.02407e+13
1.02381e+13
1.02355e+13
1.02329e+13
1.02303e+13
1.02277e+13
1.02252e+13
1.02226e+13
1.022e+13
1.02175e+13
1.0215e+13
1.02125e+13
1.02101e+13
1.02076e+13
1.02052e+13
1.02028e+13
1.02004e+13
1.01981e+13
1.01958e+13
1.01935e+13
1.01912e+13
1.0189e+13
1.01868e+13
1.01846e+13
1.01824e+13
1.01803e+13
1.01782e+13
1.01762e+13
1.01741e+13
1.01721e+13
1.01701e+13
1.01681e+13
1.01662e+13
1.01643e+13
1.01624e+13
1.01605e+13
1.01587e+13
1.01569e+13
1.01551e+13
1.01533e+13
1.01516e+13
1.01499e+13
1.01482e+13
1.01465e+13
1.01448e+13
1.01432e+13
1.01416e+13
1.014e+13
1.01385e+13
1.01369e+13
1.01354e+13
1.01339e+13
1.01324e+13
1.0131e+13
1.01295e+13
1.01281e+13
1.01267e+13
1.01253e+13
1.0124e+13
1.01226e+13
1.01213e+13
1.012e+13
1.01187e+13
1.01174e+13
1.01162e+13
1.01149e+13
1.01137e+13
1.01125e+13
1.01113e+13
1.01101e+13
1.01089e+13
1.01078e+13
1.01067e+13
1.01055e+13
1.01045e+13
1.0273e+13
1.02732e+13
1.0273e+13
1.02726e+13
1.02721e+13
1.02713e+13
1.02704e+13
1.02692e+13
1.02679e+13
1.02665e+13
1.02649e+13
1.02632e+13
1.02613e+13
1.02594e+13
1.02574e+13
1.02553e+13
1.02531e+13
1.02508e+13
1.02486e+13
1.02462e+13
1.02438e+13
1.02414e+13
1.0239e+13
1.02366e+13
1.02341e+13
1.02316e+13
1.02292e+13
1.02267e+13
1.02242e+13
1.02218e+13
1.02193e+13
1.02169e+13
1.02145e+13
1.0212e+13
1.02096e+13
1.02073e+13
1.02049e+13
1.02026e+13
1.02003e+13
1.0198e+13
1.01957e+13
1.01935e+13
1.01912e+13
1.0189e+13
1.01869e+13
1.01847e+13
1.01826e+13
1.01805e+13
1.01784e+13
1.01764e+13
1.01744e+13
1.01724e+13
1.01704e+13
1.01685e+13
1.01666e+13
1.01647e+13
1.01628e+13
1.0161e+13
1.01591e+13
1.01573e+13
1.01556e+13
1.01538e+13
1.01521e+13
1.01504e+13
1.01487e+13
1.0147e+13
1.01454e+13
1.01438e+13
1.01422e+13
1.01406e+13
1.0139e+13
1.01375e+13
1.0136e+13
1.01345e+13
1.0133e+13
1.01316e+13
1.01301e+13
1.01287e+13
1.01273e+13
1.01259e+13
1.01246e+13
1.01232e+13
1.01219e+13
1.01206e+13
1.01193e+13
1.0118e+13
1.01168e+13
1.01156e+13
1.01143e+13
1.01131e+13
1.01119e+13
1.01107e+13
1.01096e+13
1.01084e+13
1.01073e+13
1.01062e+13
1.0105e+13
1.01039e+13
1.02663e+13
1.02664e+13
1.02664e+13
1.0266e+13
1.02656e+13
1.02649e+13
1.0264e+13
1.0263e+13
1.02618e+13
1.02605e+13
1.02591e+13
1.02575e+13
1.02558e+13
1.0254e+13
1.02521e+13
1.02501e+13
1.02481e+13
1.0246e+13
1.02439e+13
1.02417e+13
1.02394e+13
1.02372e+13
1.02349e+13
1.02325e+13
1.02302e+13
1.02279e+13
1.02255e+13
1.02231e+13
1.02208e+13
1.02184e+13
1.02161e+13
1.02137e+13
1.02114e+13
1.02091e+13
1.02068e+13
1.02045e+13
1.02022e+13
1.02e+13
1.01977e+13
1.01955e+13
1.01933e+13
1.01912e+13
1.0189e+13
1.01869e+13
1.01848e+13
1.01827e+13
1.01806e+13
1.01786e+13
1.01766e+13
1.01746e+13
1.01726e+13
1.01707e+13
1.01688e+13
1.01669e+13
1.0165e+13
1.01631e+13
1.01613e+13
1.01595e+13
1.01577e+13
1.0156e+13
1.01542e+13
1.01525e+13
1.01508e+13
1.01492e+13
1.01475e+13
1.01459e+13
1.01443e+13
1.01427e+13
1.01411e+13
1.01396e+13
1.0138e+13
1.01365e+13
1.0135e+13
1.01336e+13
1.01321e+13
1.01307e+13
1.01293e+13
1.01279e+13
1.01265e+13
1.01251e+13
1.01238e+13
1.01225e+13
1.01212e+13
1.01199e+13
1.01186e+13
1.01174e+13
1.01161e+13
1.01149e+13
1.01137e+13
1.01125e+13
1.01113e+13
1.01101e+13
1.0109e+13
1.01079e+13
1.01067e+13
1.01056e+13
1.01045e+13
1.01034e+13
1.02595e+13
1.02599e+13
1.026e+13
1.026e+13
1.02597e+13
1.02593e+13
1.02587e+13
1.02579e+13
1.0257e+13
1.0256e+13
1.02548e+13
1.02534e+13
1.0252e+13
1.02504e+13
1.02487e+13
1.0247e+13
1.02452e+13
1.02433e+13
1.02413e+13
1.02393e+13
1.02372e+13
1.02351e+13
1.0233e+13
1.02308e+13
1.02286e+13
1.02264e+13
1.02241e+13
1.02219e+13
1.02197e+13
1.02174e+13