/*--------------------------------*- C++ -*----------------------------------*\
  =========                 |
  \\      /  F ield         | OpenFOAM: The Open Source CFD Toolbox
   \\    /   O peration     | Website:  https://openfoam.org
    \\  /    A nd           | Version:  7
     \\/     M anipulation  |
\*---------------------------------------------------------------------------*/
FoamFile
{
    version     2.0;
    format      ascii;
    class       volScalarField;
    location    "1e-12";
    object      ni;
}
// * * * * * * * * * * * * * * * * * * * * * * * * * * * * * * * * * * * * * //

dimensions      [0 -3 0 0 0 0 0];

internalField   nonuniform List<scalar> 
14934
(
1.11114e+13
1.09854e+13
1.08925e+13
1.08204e+13
1.07622e+13
1.07139e+13
1.06729e+13
1.06376e+13
1.06066e+13
1.05792e+13
1.05547e+13
1.05326e+13
1.05125e+13
1.04942e+13
1.04773e+13
1.04617e+13
1.04473e+13
1.04338e+13
1.04212e+13
1.04094e+13
1.03982e+13
1.03877e+13
1.03778e+13
1.03684e+13
1.03595e+13
1.0351e+13
1.03429e+13
1.03352e+13
1.03278e+13
1.03207e+13
1.03139e+13
1.03074e+13
1.03011e+13
1.02951e+13
1.02892e+13
1.02836e+13
1.02782e+13
1.0273e+13
1.02679e+13
1.0263e+13
1.02583e+13
1.02537e+13
1.02492e+13
1.02449e+13
1.02407e+13
1.02366e+13
1.02326e+13
1.02288e+13
1.0225e+13
1.02214e+13
1.02178e+13
1.02143e+13
1.02109e+13
1.02076e+13
1.02044e+13
1.02013e+13
1.01982e+13
1.01952e+13
1.01923e+13
1.01894e+13
1.01866e+13
1.01839e+13
1.01812e+13
1.01786e+13
1.0176e+13
1.01735e+13
1.01711e+13
1.01687e+13
1.01663e+13
1.0164e+13
1.01617e+13
1.01595e+13
1.01574e+13
1.01552e+13
1.01531e+13
1.01511e+13
1.01491e+13
1.01471e+13
1.01452e+13
1.01433e+13
1.01414e+13
1.01396e+13
1.01378e+13
1.0136e+13
1.01343e+13
1.01326e+13
1.01309e+13
1.01293e+13
1.01277e+13
1.01261e+13
1.01245e+13
1.0123e+13
1.01215e+13
1.012e+13
1.01185e+13
1.01171e+13
1.01157e+13
1.10369e+13
1.09353e+13
1.08557e+13
1.07915e+13
1.07385e+13
1.06939e+13
1.06556e+13
1.06224e+13
1.05931e+13
1.0567e+13
1.05436e+13
1.05225e+13
1.05032e+13
1.04855e+13
1.04693e+13
1.04542e+13
1.04402e+13
1.04272e+13
1.04149e+13
1.04035e+13
1.03927e+13
1.03825e+13
1.03728e+13
1.03636e+13
1.03549e+13
1.03467e+13
1.03387e+13
1.03312e+13
1.0324e+13
1.0317e+13
1.03104e+13
1.0304e+13
1.02979e+13
1.0292e+13
1.02863e+13
1.02808e+13
1.02754e+13
1.02703e+13
1.02653e+13
1.02605e+13
1.02559e+13
1.02514e+13
1.0247e+13
1.02427e+13
1.02386e+13
1.02346e+13
1.02307e+13
1.02269e+13
1.02232e+13
1.02196e+13
1.02161e+13
1.02127e+13
1.02093e+13
1.02061e+13
1.02029e+13
1.01998e+13
1.01968e+13
1.01938e+13
1.0191e+13
1.01881e+13
1.01854e+13
1.01827e+13
1.018e+13
1.01775e+13
1.01749e+13
1.01725e+13
1.017e+13
1.01677e+13
1.01653e+13
1.0163e+13
1.01608e+13
1.01586e+13
1.01565e+13
1.01544e+13
1.01523e+13
1.01503e+13
1.01483e+13
1.01464e+13
1.01444e+13
1.01426e+13
1.01407e+13
1.01389e+13
1.01371e+13
1.01354e+13
1.01337e+13
1.0132e+13
1.01303e+13
1.01287e+13
1.01271e+13
1.01255e+13
1.0124e+13
1.01225e+13
1.0121e+13
1.01195e+13
1.0118e+13
1.01166e+13
1.01152e+13
1.09504e+13
1.08748e+13
1.08108e+13
1.07567e+13
1.07104e+13
1.06705e+13
1.06358e+13
1.06051e+13
1.05779e+13
1.05535e+13
1.05315e+13
1.05114e+13
1.04931e+13
1.04762e+13
1.04607e+13
1.04462e+13
1.04328e+13
1.04202e+13
1.04084e+13
1.03973e+13
1.03868e+13
1.03769e+13
1.03676e+13
1.03587e+13
1.03502e+13
1.03422e+13
1.03345e+13
1.03271e+13
1.03201e+13
1.03133e+13
1.03068e+13
1.03006e+13
1.02946e+13
1.02888e+13
1.02832e+13
1.02778e+13
1.02726e+13
1.02676e+13
1.02627e+13
1.0258e+13
1.02535e+13
1.0249e+13
1.02447e+13
1.02405e+13
1.02365e+13
1.02326e+13
1.02287e+13
1.0225e+13
1.02213e+13
1.02178e+13
1.02144e+13
1.0211e+13
1.02077e+13
1.02045e+13
1.02014e+13
1.01983e+13
1.01954e+13
1.01925e+13
1.01896e+13
1.01868e+13
1.01841e+13
1.01815e+13
1.01788e+13
1.01763e+13
1.01738e+13
1.01714e+13
1.0169e+13
1.01666e+13
1.01643e+13
1.01621e+13
1.01599e+13
1.01577e+13
1.01556e+13
1.01535e+13
1.01515e+13
1.01495e+13
1.01475e+13
1.01456e+13
1.01437e+13
1.01418e+13
1.014e+13
1.01382e+13
1.01365e+13
1.01347e+13
1.0133e+13
1.01314e+13
1.01297e+13
1.01281e+13
1.01265e+13
1.0125e+13
1.01235e+13
1.01219e+13
1.01205e+13
1.0119e+13
1.01176e+13
1.01162e+13
1.01148e+13
1.08669e+13
1.08125e+13
1.0763e+13
1.07188e+13
1.06797e+13
1.06449e+13
1.0614e+13
1.05864e+13
1.05615e+13
1.05389e+13
1.05184e+13
1.04996e+13
1.04823e+13
1.04664e+13
1.04516e+13
1.04378e+13
1.04249e+13
1.04129e+13
1.04015e+13
1.03909e+13
1.03808e+13
1.03712e+13
1.03622e+13
1.03536e+13
1.03454e+13
1.03375e+13
1.03301e+13
1.03229e+13
1.0316e+13
1.03095e+13
1.03031e+13
1.02971e+13
1.02912e+13
1.02855e+13
1.02801e+13
1.02748e+13
1.02698e+13
1.02648e+13
1.02601e+13
1.02555e+13
1.0251e+13
1.02466e+13
1.02424e+13
1.02383e+13
1.02343e+13
1.02305e+13
1.02267e+13
1.02231e+13
1.02195e+13
1.0216e+13
1.02126e+13
1.02093e+13
1.02061e+13
1.02029e+13
1.01999e+13
1.01969e+13
1.01939e+13
1.01911e+13
1.01883e+13
1.01855e+13
1.01828e+13
1.01802e+13
1.01777e+13
1.01751e+13
1.01727e+13
1.01703e+13
1.01679e+13
1.01656e+13
1.01633e+13
1.01611e+13
1.01589e+13
1.01568e+13
1.01547e+13
1.01527e+13
1.01506e+13
1.01487e+13
1.01467e+13
1.01448e+13
1.01429e+13
1.01411e+13
1.01393e+13
1.01375e+13
1.01358e+13
1.01341e+13
1.01324e+13
1.01308e+13
1.01291e+13
1.01275e+13
1.0126e+13
1.01244e+13
1.01229e+13
1.01214e+13
1.012e+13
1.01185e+13
1.01171e+13
1.01157e+13
1.01143e+13
1.07921e+13
1.07532e+13
1.07156e+13
1.06803e+13
1.06478e+13
1.06182e+13
1.05912e+13
1.05666e+13
1.05441e+13
1.05235e+13
1.05046e+13
1.04872e+13
1.0471e+13
1.04561e+13
1.04421e+13
1.0429e+13
1.04168e+13
1.04053e+13
1.03945e+13
1.03842e+13
1.03745e+13
1.03653e+13
1.03566e+13
1.03483e+13
1.03404e+13
1.03328e+13
1.03255e+13
1.03186e+13
1.03119e+13
1.03055e+13
1.02994e+13
1.02935e+13
1.02878e+13
1.02823e+13
1.02769e+13
1.02718e+13
1.02668e+13
1.0262e+13
1.02574e+13
1.02529e+13
1.02485e+13
1.02442e+13
1.02401e+13
1.02361e+13
1.02322e+13
1.02284e+13
1.02247e+13
1.02211e+13
1.02176e+13
1.02142e+13
1.02108e+13
1.02076e+13
1.02044e+13
1.02013e+13
1.01983e+13
1.01954e+13
1.01925e+13
1.01896e+13
1.01869e+13
1.01842e+13
1.01816e+13
1.0179e+13
1.01764e+13
1.0174e+13
1.01715e+13
1.01692e+13
1.01668e+13
1.01646e+13
1.01623e+13
1.01601e+13
1.0158e+13
1.01559e+13
1.01538e+13
1.01518e+13
1.01498e+13
1.01478e+13
1.01459e+13
1.0144e+13
1.01422e+13
1.01404e+13
1.01386e+13
1.01368e+13
1.01351e+13
1.01334e+13
1.01318e+13
1.01301e+13
1.01285e+13
1.0127e+13
1.01254e+13
1.01239e+13
1.01224e+13
1.01209e+13
1.01195e+13
1.0118e+13
1.01166e+13
1.01152e+13
1.01139e+13
1.07269e+13
1.06991e+13
1.06707e+13
1.06428e+13
1.06162e+13
1.05912e+13
1.05679e+13
1.05463e+13
1.05263e+13
1.05077e+13
1.04904e+13
1.04744e+13
1.04594e+13
1.04454e+13
1.04323e+13
1.042e+13
1.04084e+13
1.03975e+13
1.03872e+13
1.03774e+13
1.03681e+13
1.03593e+13
1.03509e+13
1.03429e+13
1.03353e+13
1.0328e+13
1.03209e+13
1.03142e+13
1.03078e+13
1.03016e+13
1.02956e+13
1.02898e+13
1.02843e+13
1.02789e+13
1.02737e+13
1.02687e+13
1.02639e+13
1.02592e+13
1.02546e+13
1.02502e+13
1.02459e+13
1.02418e+13
1.02377e+13
1.02338e+13
1.023e+13
1.02263e+13
1.02226e+13
1.02191e+13
1.02157e+13
1.02123e+13
1.02091e+13
1.02059e+13
1.02028e+13
1.01997e+13
1.01967e+13
1.01938e+13
1.0191e+13
1.01882e+13
1.01855e+13
1.01829e+13
1.01803e+13
1.01777e+13
1.01752e+13
1.01728e+13
1.01704e+13
1.01681e+13
1.01658e+13
1.01635e+13
1.01613e+13
1.01591e+13
1.0157e+13
1.01549e+13
1.01529e+13
1.01509e+13
1.01489e+13
1.0147e+13
1.01451e+13
1.01433e+13
1.01414e+13
1.01396e+13
1.01379e+13
1.01361e+13
1.01344e+13
1.01328e+13
1.01311e+13
1.01295e+13
1.01279e+13
1.01264e+13
1.01248e+13
1.01233e+13
1.01218e+13
1.01204e+13
1.01189e+13
1.01175e+13
1.01161e+13
1.01148e+13
1.01134e+13
1.06708e+13
1.06507e+13
1.06292e+13
1.06072e+13
1.05856e+13
1.05647e+13
1.05448e+13
1.0526e+13
1.05082e+13
1.04916e+13
1.0476e+13
1.04613e+13
1.04475e+13
1.04345e+13
1.04223e+13
1.04108e+13
1.03999e+13
1.03895e+13
1.03797e+13
1.03704e+13
1.03616e+13
1.03532e+13
1.03451e+13
1.03374e+13
1.03301e+13
1.0323e+13
1.03163e+13
1.03098e+13
1.03035e+13
1.02975e+13
1.02917e+13
1.02861e+13
1.02807e+13
1.02755e+13
1.02705e+13
1.02656e+13
1.02609e+13
1.02563e+13
1.02519e+13
1.02476e+13
1.02434e+13
1.02393e+13
1.02354e+13
1.02315e+13
1.02278e+13
1.02241e+13
1.02206e+13
1.02171e+13
1.02138e+13
1.02105e+13
1.02073e+13
1.02041e+13
1.02011e+13
1.01981e+13
1.01952e+13
1.01923e+13
1.01895e+13
1.01868e+13
1.01841e+13
1.01815e+13
1.0179e+13
1.01765e+13
1.0174e+13
1.01716e+13
1.01692e+13
1.01669e+13
1.01647e+13
1.01625e+13
1.01603e+13
1.01582e+13
1.01561e+13
1.0154e+13
1.0152e+13
1.015e+13
1.01481e+13
1.01462e+13
1.01443e+13
1.01425e+13
1.01407e+13
1.01389e+13
1.01372e+13
1.01354e+13
1.01338e+13
1.01321e+13
1.01305e+13
1.01289e+13
1.01273e+13
1.01258e+13
1.01242e+13
1.01228e+13
1.01213e+13
1.01198e+13
1.01184e+13
1.0117e+13
1.01156e+13
1.01143e+13
1.01129e+13
1.06224e+13
1.06078e+13
1.05914e+13
1.05741e+13
1.05565e+13
1.05392e+13
1.05222e+13
1.05059e+13
1.04904e+13
1.04755e+13
1.04614e+13
1.04481e+13
1.04355e+13
1.04235e+13
1.04122e+13
1.04014e+13
1.03912e+13
1.03814e+13
1.03722e+13
1.03634e+13
1.0355e+13
1.03469e+13
1.03392e+13
1.03319e+13
1.03248e+13
1.0318e+13
1.03115e+13
1.03053e+13
1.02992e+13
1.02934e+13
1.02878e+13
1.02824e+13
1.02772e+13
1.02721e+13
1.02672e+13
1.02625e+13
1.02579e+13
1.02534e+13
1.02491e+13
1.02449e+13
1.02408e+13
1.02368e+13
1.0233e+13
1.02292e+13
1.02255e+13
1.0222e+13
1.02185e+13
1.02151e+13
1.02118e+13
1.02086e+13
1.02054e+13
1.02024e+13
1.01994e+13
1.01964e+13
1.01936e+13
1.01908e+13
1.0188e+13
1.01854e+13
1.01827e+13
1.01802e+13
1.01776e+13
1.01752e+13
1.01728e+13
1.01704e+13
1.01681e+13
1.01658e+13
1.01636e+13
1.01614e+13
1.01593e+13
1.01572e+13
1.01551e+13
1.01531e+13
1.01511e+13
1.01491e+13
1.01472e+13
1.01453e+13
1.01435e+13
1.01417e+13
1.01399e+13
1.01381e+13
1.01364e+13
1.01347e+13
1.01331e+13
1.01314e+13
1.01298e+13
1.01283e+13
1.01267e+13
1.01252e+13
1.01237e+13
1.01222e+13
1.01207e+13
1.01193e+13
1.01179e+13
1.01165e+13
1.01151e+13
1.01138e+13
1.01125e+13
1.05805e+13
1.05698e+13
1.05572e+13
1.05436e+13
1.05293e+13
1.05148e+13
1.05005e+13
1.04864e+13
1.04728e+13
1.04597e+13
1.04471e+13
1.0435e+13
1.04235e+13
1.04125e+13
1.0402e+13
1.0392e+13
1.03824e+13
1.03733e+13
1.03646e+13
1.03562e+13
1.03483e+13
1.03406e+13
1.03333e+13
1.03263e+13
1.03195e+13
1.0313e+13
1.03067e+13
1.03007e+13
1.02949e+13
1.02893e+13
1.02839e+13
1.02786e+13
1.02736e+13
1.02686e+13
1.02639e+13
1.02593e+13
1.02548e+13
1.02505e+13
1.02463e+13
1.02422e+13
1.02382e+13
1.02343e+13
1.02305e+13
1.02269e+13
1.02233e+13
1.02198e+13
1.02164e+13
1.02131e+13
1.02099e+13
1.02067e+13
1.02036e+13
1.02006e+13
1.01977e+13
1.01948e+13
1.0192e+13
1.01892e+13
1.01865e+13
1.01839e+13
1.01813e+13
1.01788e+13
1.01763e+13
1.01739e+13
1.01715e+13
1.01692e+13
1.01669e+13
1.01647e+13
1.01625e+13
1.01603e+13
1.01582e+13
1.01562e+13
1.01541e+13
1.01521e+13
1.01502e+13
1.01482e+13
1.01464e+13
1.01445e+13
1.01427e+13
1.01409e+13
1.01391e+13
1.01374e+13
1.01357e+13
1.0134e+13
1.01324e+13
1.01308e+13
1.01292e+13
1.01276e+13
1.01261e+13
1.01246e+13
1.01231e+13
1.01216e+13
1.01202e+13
1.01188e+13
1.01174e+13
1.0116e+13
1.01146e+13
1.01133e+13
1.0112e+13
1.05441e+13
1.05361e+13
1.05264e+13
1.05155e+13
1.05039e+13
1.04919e+13
1.04798e+13
1.04677e+13
1.04558e+13
1.04442e+13
1.04329e+13
1.0422e+13
1.04116e+13
1.04015e+13
1.03918e+13
1.03826e+13
1.03737e+13
1.03651e+13
1.03569e+13
1.03491e+13
1.03415e+13
1.03343e+13
1.03273e+13
1.03206e+13
1.03142e+13
1.03079e+13
1.03019e+13
1.02961e+13
1.02905e+13
1.02851e+13
1.02799e+13
1.02748e+13
1.02699e+13
1.02652e+13
1.02606e+13
1.02561e+13
1.02517e+13
1.02475e+13
1.02434e+13
1.02394e+13
1.02356e+13
1.02318e+13
1.02281e+13
1.02245e+13
1.0221e+13
1.02176e+13
1.02143e+13
1.02111e+13
1.02079e+13
1.02048e+13
1.02018e+13
1.01988e+13
1.0196e+13
1.01931e+13
1.01904e+13
1.01877e+13
1.0185e+13
1.01824e+13
1.01799e+13
1.01774e+13
1.0175e+13
1.01726e+13
1.01703e+13
1.0168e+13
1.01657e+13
1.01635e+13
1.01614e+13
1.01593e+13
1.01572e+13
1.01551e+13
1.01531e+13
1.01512e+13
1.01492e+13
1.01473e+13
1.01455e+13
1.01436e+13
1.01418e+13
1.01401e+13
1.01383e+13
1.01366e+13
1.0135e+13
1.01333e+13
1.01317e+13
1.01301e+13
1.01285e+13
1.0127e+13
1.01255e+13
1.0124e+13
1.01225e+13
1.0121e+13
1.01196e+13
1.01182e+13
1.01168e+13
1.01155e+13
1.01141e+13
1.01128e+13
1.01115e+13
1.05122e+13
1.05062e+13
1.04986e+13
1.04899e+13
1.04804e+13
1.04704e+13
1.04601e+13
1.04497e+13
1.04394e+13
1.04291e+13
1.04191e+13
1.04093e+13
1.03999e+13
1.03907e+13
1.03818e+13
1.03732e+13
1.0365e+13
1.0357e+13
1.03493e+13
1.03419e+13
1.03348e+13
1.03279e+13
1.03213e+13
1.03149e+13
1.03088e+13
1.03028e+13
1.02971e+13
1.02915e+13
1.02862e+13
1.02809e+13
1.02759e+13
1.0271e+13
1.02663e+13
1.02617e+13
1.02572e+13
1.02529e+13
1.02487e+13
1.02446e+13
1.02406e+13
1.02367e+13
1.02329e+13
1.02293e+13
1.02257e+13
1.02222e+13
1.02188e+13
1.02154e+13
1.02122e+13
1.0209e+13
1.02059e+13
1.02029e+13
1.02e+13
1.01971e+13
1.01942e+13
1.01915e+13
1.01888e+13
1.01861e+13
1.01835e+13
1.0181e+13
1.01785e+13
1.01761e+13
1.01737e+13
1.01713e+13
1.0169e+13
1.01668e+13
1.01646e+13
1.01624e+13
1.01603e+13
1.01582e+13
1.01561e+13
1.01541e+13
1.01522e+13
1.01502e+13
1.01483e+13
1.01464e+13
1.01446e+13
1.01428e+13
1.0141e+13
1.01393e+13
1.01376e+13
1.01359e+13
1.01342e+13
1.01326e+13
1.0131e+13
1.01294e+13
1.01279e+13
1.01263e+13
1.01248e+13
1.01234e+13
1.01219e+13
1.01205e+13
1.01191e+13
1.01177e+13
1.01163e+13
1.0115e+13
1.01136e+13
1.01123e+13
1.01111e+13
1.0484e+13
1.04795e+13
1.04735e+13
1.04665e+13
1.04588e+13
1.04504e+13
1.04417e+13
1.04327e+13
1.04237e+13
1.04147e+13
1.04058e+13
1.0397e+13
1.03884e+13
1.038e+13
1.03719e+13
1.0364e+13
1.03563e+13
1.03489e+13
1.03417e+13
1.03348e+13
1.03281e+13
1.03216e+13
1.03154e+13
1.03093e+13
1.03034e+13
1.02977e+13
1.02922e+13
1.02869e+13
1.02818e+13
1.02768e+13
1.02719e+13
1.02672e+13
1.02626e+13
1.02582e+13
1.02539e+13
1.02497e+13
1.02456e+13
1.02416e+13
1.02377e+13
1.0234e+13
1.02303e+13
1.02267e+13
1.02232e+13
1.02198e+13
1.02165e+13
1.02133e+13
1.02101e+13
1.0207e+13
1.0204e+13
1.0201e+13
1.01981e+13
1.01953e+13
1.01925e+13
1.01898e+13
1.01872e+13
1.01846e+13
1.0182e+13
1.01795e+13
1.01771e+13
1.01747e+13
1.01723e+13
1.017e+13
1.01678e+13
1.01656e+13
1.01634e+13
1.01613e+13
1.01592e+13
1.01571e+13
1.01551e+13
1.01531e+13
1.01512e+13
1.01493e+13
1.01474e+13
1.01455e+13
1.01437e+13
1.01419e+13
1.01402e+13
1.01385e+13
1.01368e+13
1.01351e+13
1.01335e+13
1.01319e+13
1.01303e+13
1.01287e+13
1.01272e+13
1.01257e+13
1.01242e+13
1.01227e+13
1.01213e+13
1.01199e+13
1.01185e+13
1.01171e+13
1.01158e+13
1.01144e+13
1.01131e+13
1.01118e+13
1.01106e+13
1.0459e+13
1.04555e+13
1.04508e+13
1.04452e+13
1.04387e+13
1.04317e+13
1.04243e+13
1.04166e+13
1.04087e+13
1.04008e+13
1.03929e+13
1.0385e+13
1.03772e+13
1.03696e+13
1.03622e+13
1.03549e+13
1.03478e+13
1.03409e+13
1.03342e+13
1.03278e+13
1.03214e+13
1.03153e+13
1.03094e+13
1.03037e+13
1.02981e+13
1.02927e+13
1.02874e+13
1.02823e+13
1.02774e+13
1.02726e+13
1.02679e+13
1.02634e+13
1.0259e+13
1.02547e+13
1.02505e+13
1.02464e+13
1.02425e+13
1.02386e+13
1.02349e+13
1.02312e+13
1.02277e+13
1.02242e+13
1.02208e+13
1.02175e+13
1.02142e+13
1.02111e+13
1.0208e+13
1.02049e+13
1.0202e+13
1.01991e+13
1.01963e+13
1.01935e+13
1.01908e+13
1.01881e+13
1.01855e+13
1.0183e+13
1.01805e+13
1.0178e+13
1.01757e+13
1.01733e+13
1.0171e+13
1.01687e+13
1.01665e+13
1.01643e+13
1.01622e+13
1.01601e+13
1.01581e+13
1.0156e+13
1.0154e+13
1.01521e+13
1.01502e+13
1.01483e+13
1.01464e+13
1.01446e+13
1.01428e+13
1.01411e+13
1.01394e+13
1.01377e+13
1.0136e+13
1.01343e+13
1.01327e+13
1.01311e+13
1.01296e+13
1.0128e+13
1.01265e+13
1.0125e+13
1.01236e+13
1.01221e+13
1.01207e+13
1.01193e+13
1.01179e+13
1.01166e+13
1.01152e+13
1.01139e+13
1.01126e+13
1.01113e+13
1.01101e+13
1.04381e+13
1.04366e+13
1.04339e+13
1.04302e+13
1.04256e+13
1.04203e+13
1.04143e+13
1.0408e+13
1.04014e+13
1.03945e+13
1.03875e+13
1.03805e+13
1.03734e+13
1.03664e+13
1.03595e+13
1.03527e+13
1.0346e+13
1.03395e+13
1.03331e+13
1.03268e+13
1.03208e+13
1.03149e+13
1.03091e+13
1.03035e+13
1.02981e+13
1.02928e+13
1.02876e+13
1.02826e+13
1.02777e+13
1.0273e+13
1.02684e+13
1.02639e+13
1.02596e+13
1.02553e+13
1.02512e+13
1.02472e+13
1.02432e+13
1.02394e+13
1.02357e+13
1.0232e+13
1.02285e+13
1.0225e+13
1.02216e+13
1.02183e+13
1.02151e+13
1.02119e+13
1.02089e+13
1.02058e+13
1.02029e+13
1.02e+13
1.01972e+13
1.01944e+13
1.01917e+13
1.01891e+13
1.01865e+13
1.01839e+13
1.01814e+13
1.0179e+13
1.01766e+13
1.01742e+13
1.01719e+13
1.01697e+13
1.01674e+13
1.01653e+13
1.01631e+13
1.0161e+13
1.0159e+13
1.01569e+13
1.01549e+13
1.0153e+13
1.01511e+13
1.01492e+13
1.01473e+13
1.01455e+13
1.01437e+13
1.0142e+13
1.01402e+13
1.01385e+13
1.01368e+13
1.01352e+13
1.01336e+13
1.0132e+13
1.01304e+13
1.01289e+13
1.01274e+13
1.01259e+13
1.01244e+13
1.01229e+13
1.01215e+13
1.01201e+13
1.01187e+13
1.01174e+13
1.0116e+13
1.01147e+13
1.01134e+13
1.01121e+13
1.01108e+13
1.01096e+13
1.04175e+13
1.04164e+13
1.04144e+13
1.04114e+13
1.04076e+13
1.04032e+13
1.03982e+13
1.03928e+13
1.0387e+13
1.0381e+13
1.03749e+13
1.03686e+13
1.03623e+13
1.0356e+13
1.03497e+13
1.03435e+13
1.03373e+13
1.03313e+13
1.03254e+13
1.03196e+13
1.03139e+13
1.03084e+13
1.03029e+13
1.02977e+13
1.02925e+13
1.02875e+13
1.02826e+13
1.02778e+13
1.02732e+13
1.02687e+13
1.02643e+13
1.026e+13
1.02558e+13
1.02517e+13
1.02477e+13
1.02438e+13
1.024e+13
1.02363e+13
1.02327e+13
1.02292e+13
1.02257e+13
1.02224e+13
1.02191e+13
1.02159e+13
1.02127e+13
1.02097e+13
1.02067e+13
1.02037e+13
1.02008e+13
1.0198e+13
1.01953e+13
1.01926e+13
1.01899e+13
1.01873e+13
1.01848e+13
1.01823e+13
1.01798e+13
1.01774e+13
1.01751e+13
1.01728e+13
1.01705e+13
1.01683e+13
1.01661e+13
1.0164e+13
1.01619e+13
1.01598e+13
1.01578e+13
1.01558e+13
1.01539e+13
1.01519e+13
1.015e+13
1.01482e+13
1.01464e+13
1.01446e+13
1.01428e+13
1.01411e+13
1.01394e+13
1.01377e+13
1.0136e+13
1.01344e+13
1.01328e+13
1.01312e+13
1.01297e+13
1.01282e+13
1.01267e+13
1.01252e+13
1.01237e+13
1.01223e+13
1.01209e+13
1.01195e+13
1.01181e+13
1.01168e+13
1.01155e+13
1.01142e+13
1.01129e+13
1.01116e+13
1.01103e+13
1.01091e+13
1.03989e+13
1.03982e+13
1.03966e+13
1.03942e+13
1.03911e+13
1.03874e+13
1.03831e+13
1.03785e+13
1.03735e+13
1.03683e+13
1.03628e+13
1.03572e+13
1.03516e+13
1.03459e+13
1.03402e+13
1.03345e+13
1.03289e+13
1.03233e+13
1.03178e+13
1.03124e+13
1.03071e+13
1.0302e+13
1.02969e+13
1.02919e+13
1.0287e+13
1.02823e+13
1.02776e+13
1.02731e+13
1.02687e+13
1.02643e+13
1.02601e+13
1.0256e+13
1.0252e+13
1.02481e+13
1.02442e+13
1.02405e+13
1.02368e+13
1.02332e+13
1.02297e+13
1.02263e+13
1.0223e+13
1.02197e+13
1.02165e+13
1.02134e+13
1.02104e+13
1.02074e+13
1.02045e+13
1.02016e+13
1.01988e+13
1.0196e+13
1.01933e+13
1.01907e+13
1.01881e+13
1.01856e+13
1.01831e+13
1.01807e+13
1.01783e+13
1.01759e+13
1.01736e+13
1.01714e+13
1.01691e+13
1.0167e+13
1.01648e+13
1.01627e+13
1.01607e+13
1.01586e+13
1.01566e+13
1.01547e+13
1.01528e+13
1.01509e+13
1.0149e+13
1.01472e+13
1.01454e+13
1.01436e+13
1.01419e+13
1.01402e+13
1.01385e+13
1.01368e+13
1.01352e+13
1.01336e+13
1.0132e+13
1.01305e+13
1.0129e+13
1.01274e+13
1.0126e+13
1.01245e+13
1.01231e+13
1.01217e+13
1.01203e+13
1.01189e+13
1.01175e+13
1.01162e+13
1.01149e+13
1.01136e+13
1.01123e+13
1.01111e+13
1.01098e+13
1.01086e+13
1.03821e+13
1.03816e+13
1.03804e+13
1.03784e+13
1.03759e+13
1.03727e+13
1.03691e+13
1.03651e+13
1.03608e+13
1.03562e+13
1.03514e+13
1.03464e+13
1.03413e+13
1.03362e+13
1.0331e+13
1.03258e+13
1.03207e+13
1.03156e+13
1.03105e+13
1.03055e+13
1.03005e+13
1.02957e+13
1.02909e+13
1.02862e+13
1.02816e+13
1.02771e+13
1.02727e+13
1.02684e+13
1.02642e+13
1.02601e+13
1.0256e+13
1.02521e+13
1.02482e+13
1.02444e+13
1.02408e+13
1.02372e+13
1.02336e+13
1.02302e+13
1.02268e+13
1.02235e+13
1.02203e+13
1.02171e+13
1.0214e+13
1.0211e+13
1.0208e+13
1.02051e+13
1.02023e+13
1.01995e+13
1.01967e+13
1.01941e+13
1.01914e+13
1.01889e+13
1.01863e+13
1.01839e+13
1.01814e+13
1.0179e+13
1.01767e+13
1.01744e+13
1.01721e+13
1.01699e+13
1.01678e+13
1.01656e+13
1.01635e+13
1.01615e+13
1.01594e+13
1.01574e+13
1.01555e+13
1.01536e+13
1.01517e+13
1.01498e+13
1.0148e+13
1.01462e+13
1.01444e+13
1.01427e+13
1.0141e+13
1.01393e+13
1.01376e+13
1.0136e+13
1.01344e+13
1.01328e+13
1.01313e+13
1.01297e+13
1.01282e+13
1.01267e+13
1.01253e+13
1.01238e+13
1.01224e+13
1.0121e+13
1.01196e+13
1.01183e+13
1.0117e+13
1.01156e+13
1.01143e+13
1.01131e+13
1.01118e+13
1.01106e+13
1.01093e+13
1.01081e+13
1.03667e+13
1.03664e+13
1.03655e+13
1.03639e+13
1.03618e+13
1.03592e+13
1.03561e+13
1.03526e+13
1.03488e+13
1.03448e+13
1.03405e+13
1.03361e+13
1.03315e+13
1.03269e+13
1.03222e+13
1.03175e+13
1.03127e+13
1.0308e+13
1.03033e+13
1.02987e+13
1.0294e+13
1.02895e+13
1.0285e+13
1.02806e+13
1.02763e+13
1.0272e+13
1.02679e+13
1.02638e+13
1.02598e+13
1.02558e+13
1.0252e+13
1.02482e+13
1.02445e+13
1.02409e+13
1.02373e+13
1.02339e+13
1.02305e+13
1.02271e+13
1.02239e+13
1.02207e+13
1.02176e+13
1.02145e+13
1.02115e+13
1.02085e+13
1.02057e+13
1.02028e+13
1.02001e+13
1.01974e+13
1.01947e+13
1.01921e+13
1.01895e+13
1.0187e+13
1.01845e+13
1.01821e+13
1.01797e+13
1.01774e+13
1.01751e+13
1.01729e+13
1.01707e+13
1.01685e+13
1.01664e+13
1.01643e+13
1.01622e+13
1.01602e+13
1.01582e+13
1.01563e+13
1.01543e+13
1.01524e+13
1.01506e+13
1.01488e+13
1.0147e+13
1.01452e+13
1.01435e+13
1.01417e+13
1.01401e+13
1.01384e+13
1.01368e+13
1.01352e+13
1.01336e+13
1.0132e+13
1.01305e+13
1.0129e+13
1.01275e+13
1.0126e+13
1.01246e+13
1.01232e+13
1.01218e+13
1.01204e+13
1.0119e+13
1.01177e+13
1.01164e+13
1.01151e+13
1.01138e+13
1.01125e+13
1.01113e+13
1.011e+13
1.01088e+13
1.01076e+13
1.03527e+13
1.03525e+13
1.03518e+13
1.03505e+13
1.03487e+13
1.03465e+13
1.03439e+13
1.03409e+13
1.03376e+13
1.0334e+13
1.03302e+13
1.03262e+13
1.03221e+13
1.0318e+13
1.03137e+13
1.03094e+13
1.0305e+13
1.03007e+13
1.02963e+13
1.0292e+13
1.02877e+13
1.02835e+13
1.02793e+13
1.02751e+13
1.02711e+13
1.0267e+13
1.02631e+13
1.02592e+13
1.02554e+13
1.02516e+13
1.0248e+13
1.02443e+13
1.02408e+13
1.02373e+13
1.02339e+13
1.02306e+13
1.02273e+13
1.02241e+13
1.0221e+13
1.02179e+13
1.02148e+13
1.02119e+13
1.0209e+13
1.02061e+13
1.02033e+13
1.02006e+13
1.01979e+13
1.01952e+13
1.01927e+13
1.01901e+13
1.01876e+13
1.01852e+13
1.01828e+13
1.01804e+13
1.01781e+13
1.01758e+13
1.01736e+13
1.01714e+13
1.01692e+13
1.01671e+13
1.0165e+13
1.01629e+13
1.01609e+13
1.01589e+13
1.0157e+13
1.01551e+13
1.01532e+13
1.01513e+13
1.01495e+13
1.01477e+13
1.01459e+13
1.01442e+13
1.01425e+13
1.01408e+13
1.01391e+13
1.01375e+13
1.01359e+13
1.01343e+13
1.01328e+13
1.01312e+13
1.01297e+13
1.01282e+13
1.01267e+13
1.01253e+13
1.01239e+13
1.01225e+13
1.01211e+13
1.01197e+13
1.01184e+13
1.01171e+13
1.01158e+13
1.01145e+13
1.01132e+13
1.0112e+13
1.01107e+13
1.01095e+13
1.01083e+13
1.01071e+13
1.03397e+13
1.03397e+13
1.03392e+13
1.03381e+13
1.03366e+13
1.03347e+13
1.03325e+13
1.03298e+13
1.03269e+13
1.03238e+13
1.03204e+13
1.03169e+13
1.03132e+13
1.03094e+13
1.03055e+13
1.03016e+13
1.02976e+13
1.02936e+13
1.02896e+13
1.02856e+13
1.02816e+13
1.02776e+13
1.02737e+13
1.02698e+13
1.02659e+13
1.02621e+13
1.02584e+13
1.02547e+13
1.02511e+13
1.02475e+13
1.0244e+13
1.02405e+13
1.02371e+13
1.02338e+13
1.02306e+13
1.02273e+13
1.02242e+13
1.02211e+13
1.02181e+13
1.02151e+13
1.02122e+13
1.02093e+13
1.02065e+13
1.02037e+13
1.0201e+13
1.01983e+13
1.01957e+13
1.01931e+13
1.01906e+13
1.01882e+13
1.01857e+13
1.01833e+13
1.0181e+13
1.01787e+13
1.01764e+13
1.01742e+13
1.0172e+13
1.01698e+13
1.01677e+13
1.01656e+13
1.01636e+13
1.01616e+13
1.01596e+13
1.01577e+13
1.01558e+13
1.01539e+13
1.0152e+13
1.01502e+13
1.01484e+13
1.01466e+13
1.01449e+13
1.01432e+13
1.01415e+13
1.01398e+13
1.01382e+13
1.01366e+13
1.0135e+13
1.01335e+13
1.01319e+13
1.01304e+13
1.01289e+13
1.01275e+13
1.0126e+13
1.01246e+13
1.01232e+13
1.01218e+13
1.01204e+13
1.01191e+13
1.01178e+13
1.01165e+13
1.01152e+13
1.01139e+13
1.01126e+13
1.01114e+13
1.01102e+13
1.0109e+13
1.01078e+13
1.01066e+13
1.03278e+13
1.03278e+13
1.03274e+13
1.03266e+13
1.03254e+13
1.03237e+13
1.03218e+13
1.03195e+13
1.03169e+13
1.03141e+13
1.03111e+13
1.0308e+13
1.03046e+13
1.03012e+13
1.02977e+13
1.02941e+13
1.02904e+13
1.02867e+13
1.0283e+13
1.02793e+13
1.02756e+13
1.02718e+13
1.02682e+13
1.02645e+13
1.02609e+13
1.02573e+13
1.02538e+13
1.02503e+13
1.02468e+13
1.02434e+13
1.02401e+13
1.02368e+13
1.02335e+13
1.02303e+13
1.02272e+13
1.02241e+13
1.02211e+13
1.02181e+13
1.02152e+13
1.02123e+13
1.02095e+13
1.02067e+13
1.0204e+13
1.02013e+13
1.01987e+13
1.01961e+13
1.01936e+13
1.01911e+13
1.01886e+13
1.01862e+13
1.01838e+13
1.01815e+13
1.01792e+13
1.0177e+13
1.01747e+13
1.01726e+13
1.01704e+13
1.01683e+13
1.01663e+13
1.01642e+13
1.01622e+13
1.01603e+13
1.01583e+13
1.01564e+13
1.01545e+13
1.01527e+13
1.01509e+13
1.01491e+13
1.01473e+13
1.01456e+13
1.01439e+13
1.01422e+13
1.01405e+13
1.01389e+13
1.01373e+13
1.01357e+13
1.01342e+13
1.01326e+13
1.01311e+13
1.01296e+13
1.01281e+13
1.01267e+13
1.01253e+13
1.01239e+13
1.01225e+13
1.01211e+13
1.01198e+13
1.01184e+13
1.01171e+13
1.01158e+13
1.01146e+13
1.01133e+13
1.01121e+13
1.01109e+13
1.01097e+13
1.01085e+13
1.01073e+13
1.01061e+13
1.03167e+13
1.03168e+13
1.03166e+13
1.03159e+13
1.03148e+13
1.03134e+13
1.03117e+13
1.03097e+13
1.03075e+13
1.0305e+13
1.03023e+13
1.02995e+13
1.02965e+13
1.02934e+13
1.02901e+13
1.02868e+13
1.02835e+13
1.02801e+13
1.02766e+13
1.02732e+13
1.02697e+13
1.02663e+13
1.02628e+13
1.02594e+13
1.0256e+13
1.02526e+13
1.02492e+13
1.02459e+13
1.02426e+13
1.02394e+13
1.02362e+13
1.02331e+13
1.023e+13
1.02269e+13
1.02239e+13
1.0221e+13
1.0218e+13
1.02152e+13
1.02124e+13
1.02096e+13
1.02069e+13
1.02042e+13
1.02015e+13
1.01989e+13
1.01964e+13
1.01939e+13
1.01914e+13
1.0189e+13
1.01866e+13
1.01843e+13
1.01819e+13
1.01797e+13
1.01774e+13
1.01752e+13
1.01731e+13
1.0171e+13
1.01689e+13
1.01668e+13
1.01648e+13
1.01628e+13
1.01608e+13
1.01589e+13
1.0157e+13
1.01551e+13
1.01533e+13
1.01515e+13
1.01497e+13
1.0148e+13
1.01462e+13
1.01445e+13
1.01428e+13
1.01412e+13
1.01396e+13
1.0138e+13
1.01364e+13
1.01348e+13
1.01333e+13
1.01318e+13
1.01303e+13
1.01288e+13
1.01274e+13
1.01259e+13
1.01245e+13
1.01231e+13
1.01218e+13
1.01204e+13
1.01191e+13
1.01178e+13
1.01165e+13
1.01152e+13
1.0114e+13
1.01127e+13
1.01115e+13
1.01103e+13
1.01091e+13
1.01079e+13
1.01068e+13
1.01056e+13
1.03064e+13
1.03066e+13
1.03064e+13
1.03059e+13
1.0305e+13
1.03038e+13
1.03023e+13
1.03006e+13
1.02986e+13
1.02964e+13
1.0294e+13
1.02914e+13
1.02887e+13
1.02859e+13
1.02829e+13
1.02799e+13
1.02768e+13
1.02737e+13
1.02705e+13
1.02673e+13
1.0264e+13
1.02608e+13
1.02576e+13
1.02544e+13
1.02511e+13
1.0248e+13
1.02448e+13
1.02417e+13
1.02385e+13
1.02355e+13
1.02324e+13
1.02294e+13
1.02265e+13
1.02235e+13
1.02207e+13
1.02178e+13
1.0215e+13
1.02123e+13
1.02095e+13
1.02069e+13
1.02042e+13
1.02016e+13
1.01991e+13
1.01966e+13
1.01941e+13
1.01917e+13
1.01893e+13
1.01869e+13
1.01846e+13
1.01823e+13
1.01801e+13
1.01779e+13
1.01757e+13
1.01735e+13
1.01714e+13
1.01694e+13
1.01673e+13
1.01653e+13
1.01633e+13
1.01614e+13
1.01595e+13
1.01576e+13
1.01557e+13
1.01539e+13
1.01521e+13
1.01503e+13
1.01486e+13
1.01468e+13
1.01451e+13
1.01435e+13
1.01418e+13
1.01402e+13
1.01386e+13
1.0137e+13
1.01355e+13
1.01339e+13
1.01324e+13
1.01309e+13
1.01295e+13
1.0128e+13
1.01266e+13
1.01252e+13
1.01238e+13
1.01224e+13
1.01211e+13
1.01198e+13
1.01184e+13
1.01171e+13
1.01159e+13
1.01146e+13
1.01134e+13
1.01121e+13
1.01109e+13
1.01097e+13
1.01086e+13
1.01074e+13
1.01063e+13
1.01051e+13
1.02969e+13
1.02971e+13
1.02969e+13
1.02965e+13
1.02957e+13
1.02947e+13
1.02934e+13
1.02919e+13
1.02901e+13
1.02882e+13
1.0286e+13
1.02837e+13
1.02812e+13
1.02787e+13
1.0276e+13
1.02732e+13
1.02704e+13
1.02675e+13
1.02645e+13
1.02615e+13
1.02585e+13
1.02555e+13
1.02525e+13
1.02495e+13
1.02464e+13
1.02434e+13
1.02404e+13
1.02375e+13
1.02345e+13
1.02316e+13
1.02287e+13
1.02258e+13
1.0223e+13
1.02202e+13
1.02174e+13
1.02147e+13
1.0212e+13
1.02094e+13
1.02068e+13
1.02042e+13
1.02016e+13
1.01991e+13
1.01967e+13
1.01942e+13
1.01918e+13
1.01895e+13
1.01872e+13
1.01849e+13
1.01826e+13
1.01804e+13
1.01782e+13
1.01761e+13
1.01739e+13
1.01719e+13
1.01698e+13
1.01678e+13
1.01658e+13
1.01638e+13
1.01619e+13
1.016e+13
1.01581e+13
1.01563e+13
1.01544e+13
1.01526e+13
1.01509e+13
1.01491e+13
1.01474e+13
1.01457e+13
1.01441e+13
1.01424e+13
1.01408e+13
1.01392e+13
1.01376e+13
1.01361e+13
1.01345e+13
1.0133e+13
1.01316e+13
1.01301e+13
1.01286e+13
1.01272e+13
1.01258e+13
1.01244e+13
1.01231e+13
1.01217e+13
1.01204e+13
1.01191e+13
1.01178e+13
1.01165e+13
1.01152e+13
1.0114e+13
1.01128e+13
1.01116e+13
1.01104e+13
1.01092e+13
1.0108e+13
1.01069e+13
1.01058e+13
1.01046e+13
1.02879e+13
1.02881e+13
1.0288e+13
1.02877e+13
1.02871e+13
1.02862e+13
1.02851e+13
1.02837e+13
1.02821e+13
1.02804e+13
1.02784e+13
1.02764e+13
1.02741e+13
1.02718e+13
1.02693e+13
1.02668e+13
1.02642e+13
1.02615e+13
1.02588e+13
1.0256e+13
1.02532e+13
1.02504e+13
1.02475e+13
1.02447e+13
1.02419e+13
1.0239e+13
1.02362e+13
1.02334e+13
1.02306e+13
1.02278e+13
1.0225e+13
1.02223e+13
1.02196e+13
1.02169e+13
1.02143e+13
1.02117e+13
1.02091e+13
1.02065e+13
1.0204e+13
1.02015e+13
1.01991e+13
1.01967e+13
1.01943e+13
1.01919e+13
1.01896e+13
1.01873e+13
1.01851e+13
1.01828e+13
1.01806e+13
1.01785e+13
1.01764e+13
1.01743e+13
1.01722e+13
1.01702e+13
1.01682e+13
1.01662e+13
1.01643e+13
1.01623e+13
1.01604e+13
1.01586e+13
1.01567e+13
1.01549e+13
1.01532e+13
1.01514e+13
1.01497e+13
1.0148e+13
1.01463e+13
1.01446e+13
1.0143e+13
1.01414e+13
1.01398e+13
1.01382e+13
1.01367e+13
1.01351e+13
1.01336e+13
1.01322e+13
1.01307e+13
1.01292e+13
1.01278e+13
1.01264e+13
1.0125e+13
1.01237e+13
1.01223e+13
1.0121e+13
1.01197e+13
1.01184e+13
1.01171e+13
1.01159e+13
1.01146e+13
1.01134e+13
1.01122e+13
1.0111e+13
1.01098e+13
1.01086e+13
1.01075e+13
1.01064e+13
1.01052e+13
1.01041e+13
1.0279e+13
1.02795e+13
1.02797e+13
1.02797e+13
1.02794e+13
1.02789e+13
1.02781e+13
1.02772e+13
1.0276e+13
1.02746e+13
1.0273e+13
1.02713e+13
1.02694e+13
1.02673e+13
1.02652e+13
1.0263e+13
1.02606e+13
1.02582e+13
1.02557e+13
1.02532e+13
1.02506e+13
1.0248e+13
1.02454e+13
1.02427e+13
1.02401e+13
1.02374e+13
1.02347e+13