/*--------------------------------*- C++ -*----------------------------------*\
  =========                 |
  \\      /  F ield         | OpenFOAM: The Open Source CFD Toolbox
   \\    /   O peration     | Website:  https://openfoam.org
    \\  /    A nd           | Version:  7
     \\/     M anipulation  |
\*---------------------------------------------------------------------------*/
FoamFile
{
    version     2.0;
    format      ascii;
    class       volVectorField;
    location    "0.4";
    object      qAir;
}
// * * * * * * * * * * * * * * * * * * * * * * * * * * * * * * * * * * * * * //

dimensions      [0 -1 0 1 0 0 0];

internalField   nonuniform List<vector> 
1600
(
(45.459 1.86412e-06 -0)
(45.459 4.67732e-06 -0)
(45.459 6.15622e-06 -0)
(45.459 6.61067e-06 -0)
(45.4589 6.30465e-06 -0)
(45.4589 5.48729e-06 -0)
(45.4588 4.46685e-06 -0)
(45.4588 3.60108e-06 -0)
(45.4588 3.24557e-06 -0)
(45.4588 3.69069e-06 -0)
(45.4587 5.10956e-06 -0)
(45.4587 7.53851e-06 -0)
(45.4587 1.09045e-05 -0)
(45.4586 1.50919e-05 -0)
(45.4586 2.00044e-05 -0)
(45.4585 2.55455e-05 -0)
(45.4584 3.14654e-05 -0)
(45.4582 3.71229e-05 -0)
(45.4581 4.13233e-05 -0)
(45.4579 4.23817e-05 -0)
(45.4576 3.8384e-05 -0)
(45.4574 2.75666e-05 -0)
(45.4572 9.08969e-06 -0)
(45.4571 -1.52323e-05 -0)
(45.457 -3.87532e-05 -0)
(45.4571 -5.04254e-05 -0)
(45.4572 -4.12974e-05 -0)
(45.4574 -1.42565e-05 -0)
(45.4576 1.44859e-05 -0)
(45.4577 2.88498e-05 -0)
(45.4577 2.55294e-05 -0)
(45.4576 4.40355e-06 -0)
(45.4576 -4.26813e-05 -0)
(45.4577 -0.000101273 -0)
(45.4579 -0.00010667 -0)
(45.4579 -7.30401e-06 -0)
(45.4577 0.000196147 -0)
(45.4575 0.00047696 -0)
(45.458 0.000537423 -0)
(45.4586 0.00013781 -0)
(45.459 2.72174e-06 -0)
(45.459 6.87462e-06 -0)
(45.459 9.09506e-06 -0)
(45.459 9.72685e-06 -0)
(45.4589 9.15473e-06 -0)
(45.4589 7.79423e-06 -0)
(45.4588 6.16162e-06 -0)
(45.4588 4.84026e-06 -0)
(45.4588 4.39037e-06 -0)
(45.4588 5.24591e-06 -0)
(45.4587 7.6356e-06 -0)
(45.4587 1.15617e-05 -0)
(45.4587 1.68601e-05 -0)
(45.4586 2.3332e-05 -0)
(45.4586 3.08778e-05 -0)
(45.4585 3.94872e-05 -0)
(45.4584 4.89353e-05 -0)
(45.4582 5.82078e-05 -0)
(45.4581 6.50181e-05 -0)
(45.4579 6.59954e-05 -0)
(45.4576 5.77876e-05 -0)
(45.4574 3.85182e-05 -0)
(45.4572 8.75796e-06 -0)
(45.457 -2.7769e-05 -0)
(45.457 -6.25707e-05 -0)
(45.4571 -8.11275e-05 -0)
(45.4573 -6.81868e-05 -0)
(45.4575 -2.33464e-05 -0)
(45.4577 2.66213e-05 -0)
(45.4577 4.45512e-05 -0)
(45.4577 2.43226e-05 -0)
(45.4576 -9.25725e-07 -0)
(45.4575 -1.37175e-05 -0)
(45.4577 -4.39887e-05 -0)
(45.458 -0.000118723 -0)
(45.4582 -0.000242529 -0)
(45.4582 -0.000305007 -0)
(45.4579 0.000114628 -0)
(45.4576 0.000495322 -0)
(45.458 0.000201917 -0)
(45.459 1.47997e-06 -0)
(45.459 3.85068e-06 -0)
(45.459 5.23822e-06 -0)
(45.459 5.62131e-06 -0)
(45.4589 5.1722e-06 -0)
(45.4589 4.18574e-06 -0)
(45.4588 3.05223e-06 -0)
(45.4588 2.20054e-06 -0)
(45.4588 2.01772e-06 -0)
(45.4588 2.76965e-06 -0)
(45.4587 4.55185e-06 -0)
(45.4587 7.29473e-06 -0)
(45.4587 1.08323e-05 -0)
(45.4587 1.50198e-05 -0)
(45.4586 1.98547e-05 -0)
(45.4585 2.55104e-05 -0)
(45.4584 3.21284e-05 -0)
(45.4583 3.9247e-05 -0)
(45.4581 4.50311e-05 -0)
(45.4579 4.60351e-05 -0)
(45.4576 3.84701e-05 -0)
(45.4574 2.09642e-05 -0)
(45.4571 -3.25761e-06 -0)
(45.457 -2.75119e-05 -0)
(45.457 -4.54904e-05 -0)
(45.4571 -5.25947e-05 -0)
(45.4573 -4.27632e-05 -0)
(45.4575 -1.08981e-05 -0)
(45.4577 2.94932e-05 -0)
(45.4577 3.67006e-05 -0)
(45.4577 -1.55729e-05 -0)
(45.4576 -6.84314e-05 -0)
(45.4576 -1.26084e-05 -0)
(45.4576 0.000150133 -0)
(45.4577 0.00025235 -0)
(45.4577 9.82931e-05 -0)
(45.4581 -0.000349144 -0)
(45.4583 -0.000460257 -0)
(45.4581 -0.000137155 -0)
(45.458 7.23984e-05 -0)
(45.459 1.14784e-06 -0)
(45.459 3.0904e-06 -0)
(45.459 4.35505e-06 -0)
(45.459 4.79783e-06 -0)
(45.4589 4.48676e-06 -0)
(45.4589 3.65366e-06 -0)
(45.4588 2.64659e-06 -0)
(45.4588 1.86136e-06 -0)
(45.4588 1.65528e-06 -0)
(45.4588 2.26394e-06 -0)
(45.4588 3.7541e-06 -0)
(45.4587 6.04433e-06 -0)
(45.4587 8.99824e-06 -0)
(45.4587 1.25464e-05 -0)
(45.4586 1.67583e-05 -0)
(45.4585 2.18063e-05 -0)
(45.4584 2.78086e-05 -0)
(45.4583 3.45204e-05 -0)
(45.4581 4.078e-05 -0)
(45.4579 4.38323e-05 -0)
(45.4576 3.93757e-05 -0)
(45.4573 2.37011e-05 -0)
(45.4571 -2.12325e-06 -0)
(45.457 -2.96221e-05 -0)
(45.457 -4.68124e-05 -0)
(45.4571 -4.71624e-05 -0)
(45.4573 -3.26587e-05 -0)
(45.4576 -5.70916e-06 -0)
(45.4577 3.15498e-05 -0)
(45.4577 5.36071e-05 -0)
(45.4576 7.44179e-06 -0)
(45.4576 -0.00010822 -0)
(45.4577 -0.000172675 -0)
(45.4579 -7.8172e-05 -0)
(45.4579 9.76854e-05 -0)
(45.4576 0.000255363 -0)
(45.4576 0.000283484 -0)
(45.4581 -2.7266e-05 -0)
(45.4582 -0.000121704 -0)
(45.4581 9.4566e-06 -0)
(45.459 1.00777e-06 -0)
(45.459 2.77393e-06 -0)
(45.459 3.99923e-06 -0)
(45.459 4.49455e-06 -0)
(45.4589 4.2743e-06 -0)
(45.4589 3.52749e-06 -0)
(45.4588 2.5712e-06 -0)
(45.4588 1.78084e-06 -0)
(45.4588 1.5016e-06 -0)
(45.4588 1.95885e-06 -0)
(45.4588 3.20011e-06 -0)
(45.4587 5.11299e-06 -0)
(45.4587 7.54714e-06 -0)
(45.4587 1.04985e-05 -0)
(45.4586 1.42128e-05 -0)
(45.4585 1.90402e-05 -0)
(45.4584 2.50454e-05 -0)
(45.4583 3.16478e-05 -0)
(45.4581 3.75759e-05 -0)
(45.4579 4.09626e-05 -0)
(45.4576 3.91191e-05 -0)
(45.4573 2.8456e-05 -0)
(45.4571 6.56635e-06 -0)
(45.4569 -2.27488e-05 -0)
(45.4569 -4.65704e-05 -0)
(45.4571 -5.03442e-05 -0)
(45.4573 -3.2817e-05 -0)
(45.4576 -7.71994e-06 -0)
(45.4577 1.69282e-05 -0)
(45.4577 4.56015e-05 -0)
(45.4575 5.91239e-05 -0)
(45.4574 1.13723e-05 -0)
(45.4576 -7.63805e-05 -0)
(45.4579 -0.000120326 -0)
(45.458 -0.000165131 -0)
(45.4579 -0.000179311 -0)
(45.4578 0.000146098 -0)
(45.4579 0.000124907 -0)
(45.4581 -2.85655e-05 -0)
(45.4581 -4.17548e-06 -0)
(45.459 9.47239e-07 -0)
(45.459 2.63389e-06 -0)
(45.459 3.84675e-06 -0)
(45.459 4.38112e-06 -0)
(45.4589 4.22235e-06 -0)
(45.4589 3.52939e-06 -0)
(45.4588 2.59313e-06 -0)
(45.4588 1.76867e-06 -0)
(45.4588 1.38896e-06 -0)
(45.4588 1.67693e-06 -0)
(45.4588 2.68155e-06 -0)
(45.4587 4.27495e-06 -0)
(45.4587 6.25431e-06 -0)
(45.4587 8.5608e-06 -0)
(45.4586 1.15111e-05 -0)
(45.4585 1.57774e-05 -0)
(45.4584 2.18603e-05 -0)
(45.4583 2.92219e-05 -0)
(45.4581 3.58635e-05 -0)
(45.4579 3.90941e-05 -0)
(45.4576 3.69313e-05 -0)
(45.4573 2.83182e-05 -0)
(45.4571 1.19037e-05 -0)
(45.4569 -1.29036e-05 -0)
(45.4569 -3.96752e-05 -0)
(45.4571 -5.13678e-05 -0)
(45.4573 -3.4154e-05 -0)
(45.4576 -1.41917e-06 -0)
(45.4578 1.31331e-05 -0)
(45.4577 5.44248e-06 -0)
(45.4575 1.56941e-05 -0)
(45.4574 5.66663e-05 -0)
(45.4576 9.08714e-05 -0)
(45.4578 0.000109761 -0)
(45.4579 4.80951e-05 -0)
(45.4579 -0.000156727 -0)
(45.458 -1.64113e-05 -0)
(45.4579 6.89025e-05 -0)
(45.458 -1.1298e-06 -0)
(45.4581 -9.61078e-06 -0)
(45.459 9.25798e-07 -0)
(45.459 2.58684e-06 -0)
(45.459 3.80753e-06 -0)
(45.459 4.37741e-06 -0)
(45.4589 4.2642e-06 -0)
(45.4589 3.60541e-06 -0)
(45.4588 2.67189e-06 -0)
(45.4588 1.80131e-06 -0)
(45.4588 1.31008e-06 -0)
(45.4588 1.4079e-06 -0)
(45.4588 2.14555e-06 -0)
(45.4587 3.41909e-06 -0)
(45.4587 5.04052e-06 -0)
(45.4587 6.88556e-06 -0)
(45.4586 9.11745e-06 -0)
(45.4585 1.23741e-05 -0)
(45.4584 1.75916e-05 -0)
(45.4583 2.51253e-05 -0)
(45.4581 3.34835e-05 -0)
(45.4579 3.90359e-05 -0)
(45.4576 3.79622e-05 -0)
(45.4573 2.91591e-05 -0)
(45.457 1.42756e-05 -0)
(45.4569 -5.87694e-06 -0)
(45.4569 -3.11842e-05 -0)
(45.4571 -5.24611e-05 -0)
(45.4574 -4.73541e-05 -0)
(45.4576 -7.61652e-06 -0)
(45.4578 2.46649e-05 -0)
(45.4577 -8.54075e-06 -0)
(45.4576 -8.04614e-05 -0)
(45.4575 -8.59033e-05 -0)
(45.4576 -2.9437e-06 -0)
(45.4578 8.10797e-05 -0)
(45.4578 8.55092e-05 -0)
(45.4579 -7.99513e-05 -0)
(45.458 -6.51162e-05 -0)
(45.458 8.86161e-06 -0)
(45.458 2.7164e-07 -0)
(45.4581 -5.04314e-06 -0)
(45.459 9.23707e-07 -0)
(45.459 2.58849e-06 -0)
(45.459 3.83066e-06 -0)
(45.459 4.43692e-06 -0)
(45.4589 4.3616e-06 -0)
(45.4589 3.72341e-06 -0)
(45.4588 2.77687e-06 -0)
(45.4588 1.85076e-06 -0)
(45.4588 1.25517e-06 -0)
(45.4588 1.18169e-06 -0)
(45.4588 1.64804e-06 -0)
(45.4587 2.53607e-06 -0)
(45.4587 3.71513e-06 -0)
(45.4587 5.16786e-06 -0)
(45.4586 7.04625e-06 -0)
(45.4585 9.70214e-06 -0)
(45.4584 1.37507e-05 -0)
(45.4583 1.99169e-05 -0)
(45.4581 2.81367e-05 -0)
(45.4579 3.60841e-05 -0)
(45.4576 3.8996e-05 -0)
(45.4573 3.28061e-05 -0)
(45.457 1.84902e-05 -0)
(45.4569 1.08352e-06 -0)
(45.4569 -1.74514e-05 -0)
(45.4571 -3.79248e-05 -0)
(45.4574 -4.75076e-05 -0)
(45.4577 -1.75329e-05 -0)
(45.4578 4.64265e-05 -0)
(45.4576 6.25634e-05 -0)
(45.4575 -3.31153e-05 -0)
(45.4575 -0.000142034 -0)
(45.4578 -0.000113496 -0)
(45.4579 4.77058e-06 -0)
(45.4577 6.64904e-05 -0)
(45.4578 -2.05135e-05 -0)
(45.458 -4.76913e-05 -0)
(45.458 -1.17905e-05 -0)
(45.458 -1.31397e-06 -0)
(45.4581 -2.34202e-07 -0)
(45.459 9.29528e-07 -0)
(45.459 2.61028e-06 -0)
(45.459 3.87936e-06 -0)
(45.459 4.52258e-06 -0)
(45.4589 4.48327e-06 -0)
(45.4589 3.86065e-06 -0)
(45.4588 2.88862e-06 -0)
(45.4588 1.88644e-06 -0)
(45.4588 1.17385e-06 -0)
(45.4588 9.57696e-07 -0)
(45.4588 1.23555e-06 -0)
(45.4587 1.8062e-06 -0)
(45.4587 2.45472e-06 -0)
(45.4587 3.23108e-06 -0)
(45.4586 4.56242e-06 -0)
(45.4585 7.00474e-06 -0)
(45.4584 1.08561e-05 -0)
(45.4583 1.61397e-05 -0)
(45.4581 2.28867e-05 -0)
(45.4579 3.06173e-05 -0)
(45.4576 3.65161e-05 -0)
(45.4573 3.48996e-05 -0)
(45.457 2.17208e-05 -0)
(45.4569 1.12888e-06 -0)
(45.4569 -1.70402e-05 -0)
(45.4571 -2.99266e-05 -0)
(45.4574 -4.08336e-05 -0)
(45.4577 -3.35205e-05 -0)
(45.4578 2.47448e-05 -0)
(45.4576 0.000106787 -0)
(45.4573 9.96484e-05 -0)
(45.4574 -2.60814e-05 -0)
(45.4578 -0.000105408 -0)
(45.458 -4.18851e-05 -0)
(45.4577 3.85131e-05 -0)
(45.4577 1.6394e-05 -0)
(45.458 -1.05429e-05 -0)
(45.458 -4.96337e-06 -0)
(45.458 -6.75087e-08 -0)
(45.4581 1.17754e-06 -0)
(45.459 9.35739e-07 -0)
(45.459 2.63225e-06 -0)
(45.459 3.92555e-06 -0)
(45.459 4.60186e-06 -0)
(45.4589 4.5964e-06 -0)
(45.4589 3.99184e-06 -0)
(45.4588 2.99863e-06 -0)
(45.4588 1.91252e-06 -0)
(45.4588 1.04805e-06 -0)
(45.4588 6.45898e-07 -0)
(45.4588 7.62096e-07 -0)
(45.4587 1.19523e-06 -0)
(45.4587 1.57613e-06 -0)
(45.4587 1.70829e-06 -0)
(45.4586 1.98873e-06 -0)
(45.4585 3.42345e-06 -0)
(45.4584 6.91397e-06 -0)
(45.4583 1.23803e-05 -0)
(45.4581 1.89315e-05 -0)
(45.4579 2.60861e-05 -0)
(45.4576 3.36149e-05 -0)
(45.4573 3.83191e-05 -0)
(45.457 3.22615e-05 -0)
(45.4568 9.9786e-06 -0)
(45.4569 -2.0205e-05 -0)
(45.4571 -4.09851e-05 -0)
(45.4574 -4.85599e-05 -0)
(45.4577 -5.20151e-05 -0)
(45.4579 -3.51849e-05 -0)
(45.4577 3.36916e-05 -0)
(45.4573 0.000107404 -0)
(45.4573 7.76729e-05 -0)
(45.4577 -1.87138e-05 -0)
(45.4581 -3.13703e-05 -0)
(45.4578 1.46343e-05 -0)
(45.4577 1.99467e-05 -0)
(45.458 8.39401e-06 -0)
(45.458 4.73592e-06 -0)
(45.458 2.44879e-06 -0)
(45.4581 1.23498e-06 -0)
(45.459 9.36693e-07 -0)
(45.459 2.63925e-06 -0)
(45.459 3.94816e-06 -0)
(45.459 4.6498e-06 -0)
(45.4589 4.67058e-06 -0)
(45.4589 4.08005e-06 -0)
(45.4588 3.07448e-06 -0)
(45.4588 1.92975e-06 -0)
(45.4588 9.30303e-07 -0)
(45.4588 2.98151e-07 -0)
(45.4588 1.34897e-07 -0)
(45.4587 3.66233e-07 -0)
(45.4587 7.0751e-07 -0)
(45.4587 7.75808e-07 -0)
(45.4586 4.88408e-07 -0)
(45.4585 5.5331e-07 -0)
(45.4584 2.36045e-06 -0)
(45.4583 6.81415e-06 -0)
(45.4581 1.31343e-05 -0)
(45.4579 1.97152e-05 -0)
(45.4576 2.67619e-05 -0)
(45.4573 3.58685e-05 -0)
(45.457 4.34138e-05 -0)
(45.4568 3.66994e-05 -0)
(45.4568 6.73602e-06 -0)
(45.457 -3.24317e-05 -0)
(45.4574 -5.36748e-05 -0)
(45.4577 -5.42435e-05 -0)
(45.4579 -5.24233e-05 -0)
(45.4578 -3.40365e-05 -0)
(45.4574 2.47113e-05 -0)
(45.4573 6.32988e-05 -0)
(45.4577 2.43341e-05 -0)
(45.4581 -5.06533e-06 -0)
(45.4578 6.05415e-06 -0)
(45.4577 9.5491e-06 -0)
(45.458 6.48793e-06 -0)
(45.458 5.13606e-06 -0)
(45.458 2.61281e-06 -0)
(45.4581 9.11564e-07 -0)
(45.459 9.27569e-07 -0)
(45.459 2.61772e-06 -0)
(45.459 3.92824e-06 -0)
(45.459 4.64784e-06 -0)
(45.4589 4.68986e-06 -0)
(45.4589 4.10245e-06 -0)
(45.4588 3.06884e-06 -0)
(45.4588 1.86973e-06 -0)
(45.4588 7.92705e-07 -0)
(45.4588 2.20748e-08 -0)
(45.4588 -4.12689e-07 -0)
(45.4587 -5.85775e-07 -0)
(45.4587 -5.94429e-07 -0)
(45.4587 -5.63544e-07 -0)
(45.4586 -6.56049e-07 -0)
(45.4585 -8.03917e-07 -0)
(45.4584 -2.16014e-07 -0)
(45.4583 2.45834e-06 -0)
(45.4581 7.59263e-06 -0)
(45.4579 1.32437e-05 -0)
(45.4576 1.72737e-05 -0)
(45.4573 2.19907e-05 -0)
(45.457 3.26808e-05 -0)
(45.4568 4.54815e-05 -0)
(45.4568 4.12247e-05 -0)
(45.457 6.97086e-06 -0)
(45.4574 -3.6374e-05 -0)
(45.4577 -5.46011e-05 -0)
(45.4579 -5.04408e-05 -0)
(45.4578 -4.6188e-05 -0)
(45.4574 -2.67137e-05 -0)
(45.4573 8.86229e-06 -0)
(45.4577 8.46696e-06 -0)
(45.4581 -2.80728e-06 -0)
(45.4578 1.15303e-06 -0)
(45.4577 1.17695e-06 -0)
(45.458 -8.65814e-07 -0)
(45.458 4.01279e-09 -0)
(45.458 2.50665e-07 -0)
(45.4581 7.17328e-08 -0)
(45.459 9.0456e-07 -0)
(45.459 2.55575e-06 -0)
(45.459 3.84549e-06 -0)
(45.459 4.57184e-06 -0)
(45.4589 4.63886e-06 -0)
(45.4589 4.06342e-06 -0)
(45.4588 2.9898e-06 -0)
(45.4588 1.68839e-06 -0)
(45.4588 4.9315e-07 -0)
(45.4588 -3.45732e-07 -0)
(45.4588 -8.22487e-07 -0)
(45.4587 -1.1819e-06 -0)
(45.4587 -1.67935e-06 -0)
(45.4587 -2.29063e-06 -0)
(45.4586 -2.73137e-06 -0)
(45.4585 -2.76953e-06 -0)
(45.4584 -2.21856e-06 -0)
(45.4583 -3.47912e-07 -0)
(45.4581 4.05224e-06 -0)
(45.4579 1.06057e-05 -0)
(45.4576 1.56018e-05 -0)
(45.4573 1.57985e-05 -0)
(45.457 1.59567e-05 -0)
(45.4568 2.60825e-05 -0)
(45.4568 4.27234e-05 -0)
(45.457 4.15273e-05 -0)
(45.4573 8.25011e-06 -0)
(45.4577 -3.13616e-05 -0)
(45.4579 -4.53285e-05 -0)
(45.4578 -4.15193e-05 -0)
(45.4574 -3.3198e-05 -0)
(45.4573 -1.5486e-05 -0)
(45.4577 -1.21909e-05 -0)
(45.4581 -1.42416e-05 -0)
(45.4578 -7.26048e-06 -0)
(45.4577 -4.23631e-06 -0)
(45.458 -5.19428e-06 -0)
(45.458 -4.09081e-06 -0)
(45.458 -2.22079e-06 -0)
(45.4581 -9.44125e-07 -0)
(45.459 8.64976e-07 -0)
(45.459 2.44582e-06 -0)
(45.459 3.68531e-06 -0)
(45.459 4.39425e-06 -0)
(45.4589 4.47895e-06 -0)
(45.4589 3.93868e-06 -0)
(45.4588 2.86883e-06 -0)
(45.4588 1.47334e-06 -0)
(45.4588 6.61533e-08 -0)
(45.4588 -1.00236e-06 -0)
(45.4588 -1.54214e-06 -0)
(45.4587 -1.73948e-06 -0)
(45.4587 -2.11445e-06 -0)
(45.4587 -3.06402e-06 -0)
(45.4586 -4.35522e-06 -0)
(45.4585 -5.25202e-06 -0)
(45.4584 -5.26006e-06 -0)
(45.4583 -4.28394e-06 -0)
(45.4581 -1.52286e-06 -0)
(45.4579 4.76978e-06 -0)
(45.4576 1.40512e-05 -0)
(45.4573 2.0402e-05 -0)
(45.457 1.82019e-05 -0)
(45.4568 1.36422e-05 -0)
(45.4568 2.10145e-05 -0)
(45.457 3.80335e-05 -0)
(45.4573 3.89033e-05 -0)
(45.4577 1.12638e-05 -0)
(45.4579 -2.00602e-05 -0)
(45.4578 -3.16241e-05 -0)
(45.4575 -2.72563e-05 -0)
(45.4573 -1.47463e-05 -0)
(45.4577 -1.35846e-05 -0)
(45.4581 -1.76564e-05 -0)
(45.4578 -1.28768e-05 -0)
(45.4577 -7.51718e-06 -0)
(45.458 -6.24083e-06 -0)
(45.458 -5.11827e-06 -0)
(45.458 -3.15036e-06 -0)
(45.4581 -1.45714e-06 -0)
(45.459 8.06095e-07 -0)
(45.459 2.28215e-06 -0)
(45.459 3.4434e-06 -0)
(45.459 4.10809e-06 -0)
(45.4589 4.18061e-06 -0)
(45.4589 3.6597e-06 -0)
(45.4588 2.63179e-06 -0)
(45.4588 1.2491e-06 -0)
(45.4588 -2.78607e-07 -0)
(45.4588 -1.66992e-06 -0)
(45.4588 -2.61165e-06 -0)
(45.4587 -2.9566e-06 -0)
(45.4587 -2.98762e-06 -0)
(45.4587 -3.365e-06 -0)
(45.4586 -4.50856e-06 -0)
(45.4585 -5.95915e-06 -0)
(45.4584 -6.76036e-06 -0)
(45.4583 -6.70081e-06 -0)
(45.4581 -6.28126e-06 -0)
(45.4579 -4.37151e-06 -0)
(45.4576 2.51338e-06 -0)
(45.4573 1.47463e-05 -0)
(45.457 2.40349e-05 -0)
(45.4568 2.14065e-05 -0)
(45.4568 1.35408e-05 -0)
(45.457 1.78707e-05 -0)
(45.4573 3.31676e-05 -0)
(45.4577 3.49678e-05 -0)
(45.4579 1.37615e-05 -0)
(45.4578 -9.9672e-06 -0)
(45.4575 -1.76863e-05 -0)
(45.4573 -9.31119e-06 -0)
(45.4577 -5.9813e-06 -0)
(45.4581 -1.09245e-05 -0)
(45.4578 -1.1152e-05 -0)
(45.4577 -7.45552e-06 -0)
(45.458 -5.24795e-06 -0)
(45.458 -4.04128e-06 -0)
(45.458 -2.57771e-06 -0)
(45.4581 -1.19629e-06 -0)
(45.459 7.24961e-07 -0)
(45.459 2.05535e-06 -0)
(45.459 3.11001e-06 -0)
(45.459 3.71826e-06 -0)
(45.4589 3.76535e-06 -0)
(45.4589 3.22356e-06 -0)
(45.4588 2.18184e-06 -0)
(45.4588 8.23942e-07 -0)
(45.4588 -6.52108e-07 -0)
(45.4588 -2.09674e-06 -0)
(45.4588 -3.37033e-06 -0)
(45.4587 -4.27469e-06 -0)
(45.4587 -4.66767e-06 -0)
(45.4587 -4.76239e-06 -0)
(45.4586 -5.13373e-06 -0)
(45.4585 -6.03367e-06 -0)
(45.4584 -6.7416e-06 -0)
(45.4583 -6.38879e-06 -0)
(45.4581 -5.74895e-06 -0)
(45.4579 -6.52561e-06 -0)
(45.4576 -7.00487e-06 -0)
(45.4573 -1.00914e-06 -0)
(45.457 1.31751e-05 -0)
(45.4568 2.46485e-05 -0)
(45.4568 2.16896e-05 -0)
(45.457 1.23264e-05 -0)
(45.4573 1.55337e-05 -0)
(45.4577 2.8755e-05 -0)
(45.4579 2.95111e-05 -0)
(45.4578 1.25834e-05 -0)
(45.4575 -3.50395e-06 -0)
(45.4573 -3.72723e-06 -0)
(45.4577 1.00375e-07 -0)
(45.4581 -2.49411e-06 -0)
(45.4578 -5.19403e-06 -0)
(45.4577 -4.46408e-06 -0)
(45.458 -3.0613e-06 -0)
(45.458 -2.16651e-06 -0)
(45.458 -1.3125e-06 -0)
(45.4581 -4.43194e-07 -0)
(45.459 6.21156e-07 -0)
(45.459 1.75918e-06 -0)
(45.459 2.6638e-06 -0)
(45.459 3.19658e-06 -0)
(45.4589 3.23777e-06 -0)
(45.4589 2.7037e-06 -0)
(45.4588 1.6133e-06 -0)
(45.4588 1.49763e-07 -0)
(45.4588 -1.3816e-06 -0)
(45.4588 -2.72962e-06 -0)
(45.4588 -3.85833e-06 -0)
(45.4587 -4.87602e-06 -0)
(45.4587 -5.77998e-06 -0)
(45.4587 -6.40896e-06 -0)
(45.4586 -6.78165e-06 -0)
(45.4585 -7.22565e-06 -0)
(45.4584 -7.66866e-06 -0)
(45.4583 -7.05348e-06 -0)
(45.4581 -4.79304e-06 -0)
(45.4579 -3.10861e-06 -0)
(45.4576 -5.09763e-06 -0)
(45.4573 -8.05348e-06 -0)
(45.457 -3.11274e-06 -0)
(45.4568 1.15797e-05 -0)
(45.4568 2.24286e-05 -0)
(45.457 1.80266e-05 -0)
(45.4573 9.61466e-06 -0)
(45.4577 1.40629e-05 -0)
(45.4579 2.41747e-05 -0)
(45.4577 2.17808e-05 -0)
(45.4574 8.82991e-06 -0)
(45.4573 2.37538e-06 -0)
(45.4577 3.33458e-06 -0)
(45.458 2.61551e-06 -0)
(45.4578 1.20805e-07 -0)
(45.4577 -9.01228e-07 -0)
(45.458 -7.34646e-07 -0)
(45.458 -4.36916e-07 -0)
(45.458 -1.24741e-07 -0)
(45.4581 3.03354e-07 -0)
(45.459 4.97051e-07 -0)
(45.459 1.40159e-06 -0)
(45.459 2.10532e-06 -0)
(45.459 2.50598e-06 -0)
(45.4589 2.51952e-06 -0)
(45.4589 2.05421e-06 -0)
(45.4588 1.034e-06 -0)
(45.4588 -4.98993e-07 -0)
(45.4588 -2.27435e-06 -0)
(45.4588 -3.84736e-06 -0)
(45.4588 -4.89389e-06 -0)
(45.4587 -5.50605e-06 -0)
(45.4587 -6.08905e-06 -0)
(45.4587 -6.87193e-06 -0)
(45.4586 -7.66843e-06 -0)
(45.4585 -8.28848e-06 -0)
(45.4584 -8.81488e-06 -0)
(45.4583 -8.83128e-06 -0)
(45.4581 -6.93362e-06 -0)
(45.4579 -2.93215e-06 -0)
(45.4576 -5.00036e-07 -0)
(45.4573 -3.50604e-06 -0)
(45.457 -7.68958e-06 -0)
(45.4568 -2.90345e-06 -0)
(45.4568 1.04956e-05 -0)
(45.457 1.76177e-05 -0)
(45.4573 1.1819e-05 -0)
(45.4577 6.93484e-06 -0)
(45.4579 1.26154e-05 -0)
(45.4577 1.77961e-05 -0)
(45.4574 1.29948e-05 -0)
(45.4573 6.40715e-06 -0)
(45.4577 4.64158e-06 -0)
(45.458 4.15674e-06 -0)
(45.4578 2.57771e-06 -0)
(45.4577 1.21305e-06 -0)
(45.458 6.71289e-07 -0)
(45.458 5.223e-07 -0)
(45.458 5.09365e-07 -0)
(45.4581 6.71799e-07 -0)
(45.459 3.52692e-07 -0)
(45.459 9.90893e-07 -0)
(45.459 1.46569e-06 -0)
(45.459 1.68156e-06 -0)
(45.4589 1.57994e-06 -0)
(45.4589 1.12308e-06 -0)
(45.4588 2.52889e-07 -0)
(45.4588 -1.10319e-06 -0)
(45.4588 -2.90623e-06 -0)
(45.4588 -4.83332e-06 -0)
(45.4588 -6.31666e-06 -0)
(45.4587 -6.94854e-06 -0)
(45.4587 -6.92771e-06 -0)
(45.4587 -6.93474e-06 -0)
(45.4586 -7.40549e-06 -0)
(45.4585 -8.12458e-06 -0)
(45.4584 -8.75887e-06 -0)
(45.4583 -9.26311e-06 -0)
(45.4581 -8.97932e-06 -0)
(45.4579 -6.29715e-06 -0)
(45.4576 -1.55838e-06 -0)
(45.4573 5.88633e-07 -0)
(45.457 -3.20046e-06 -0)
(45.4568 -6.94143e-06 -0)
(45.4568 -1.75132e-06 -0)
(45.457 8.30775e-06 -0)
(45.4573 1.05014e-05 -0)
(45.4577 5.25646e-06 -0)
(45.4579 4.56613e-06 -0)
(45.4577 9.06059e-06 -0)
(45.4574 9.64339e-06 -0)
(45.4573 6.13353e-06 -0)
(45.4577 3.80611e-06 -0)
(45.458 3.08323e-06 -0)
(45.4578 2.22771e-06 -0)
(45.4577 1.24555e-06 -0)
(45.458 6.54131e-07 -0)
(45.458 4.43155e-07 -0)
(45.458 4.24514e-07 -0)
(45.4581 5.66471e-07 -0)
(45.459 1.86093e-07 -0)
(45.459 5.17373e-07 -0)
(45.459 7.46121e-07 -0)
(45.459 7.80071e-07 -0)
(45.4589 5.30886e-07 -0)
(45.4589 -3.70797e-08 -0)
(45.4588 -9.02892e-07 -0)
(45.4588 -2.0558e-06 -0)
(45.4588 -3.54365e-06 -0)
(45.4588 -5.3565e-06 -0)
(45.4588 -7.18401e-06 -0)
(45.4587 -8.3942e-06 -0)
(45.4587 -8.51197e-06 -0)
(45.4587 -7.81529e-06 -0)
(45.4586 -7.20335e-06 -0)
(45.4585 -7.25643e-06 -0)
(45.4584 -7.72039e-06 -0)
(45.4583 -8.20468e-06 -0)
(45.4581 -8.65453e-06 -0)
(45.4579 -8.28658e-06 -0)
(45.4576 -5.52415e-06 -0)
(45.4573 -1.36254e-06 -0)
(45.457 -5.91388e-07 -0)
(45.4568 -4.73026e-06 -0)
(45.4568 -6.88663e-06 -0)
(45.457 -1.89725e-06 -0)
(45.4573 3.53621e-06 -0)
(45.4577 2.32818e-06 -0)
(45.4579 -3.70537e-07 -0)
(45.4577 1.04469e-06 -0)
(45.4574 2.91624e-06 -0)
(45.4573 2.13164e-06 -0)
(45.4577 6.91724e-07 -0)
(45.458 1.0461e-07 -0)
(45.4578 -1.74211e-07 -0)
(45.4577 -5.08356e-07 -0)
(45.458 -6.93857e-07 -0)
(45.458 -5.93968e-07 -0)
(45.458 -2.92452e-07 -0)
(45.4581 1.31582e-07 -0)
(45.459 2.79954e-09 -0)
(45.459 -1.94706e-08 -0)
(45.459 -8.96527e-08 -0)
(45.459 -2.46423e-07 -0)
(45.4589 -5.88347e-07 -0)
(45.4589 -1.22893e-06 -0)
(45.4588 -2.19661e-06 -0)
(45.4588 -3.38909e-06 -0)
(45.4588 -4.67443e-06 -0)
(45.4588 -6.04115e-06 -0)
(45.4587 -7.53532e-06 -0)
(45.4587 -8.94024e-06 -0)
(45.4587 -9.64465e-06 -0)
(45.4587 -9.15202e-06 -0)
(45.4586 -7.81107e-06 -0)
(45.4585 -6.67406e-06 -0)
(45.4584 -6.38256e-06 -0)
(45.4583 -6.63988e-06 -0)
(45.4581 -7.0858e-06 -0)
(45.4579 -7.69252e-06 -0)
(45.4576 -7.56986e-06 -0)
(45.4573 -5.41947e-06 -0)
(45.457 -2.91508e-06 -0)
(45.4568 -4.01083e-06 -0)
(45.4568 -7.81775e-06 -0)
(45.457 -8.27183e-06 -0)
(45.4573 -4.75919e-06 -0)
(45.4577 -3.42161e-06 -0)
(45.4579 -5.14265e-06 -0)
(45.4577 -5.52358e-06 -0)
(45.4574 -4.24325e-06 -0)
(45.4573 -3.70987e-06 -0)
(45.4577 -4.02523e-06 -0)
(45.458 -4.1216e-06 -0)
(45.4578 -3.84573e-06 -0)
(45.4577 -3.46344e-06 -0)
(45.458 -2.99267e-06 -0)
(45.458 -2.30716e-06 -0)
(45.458 -1.4115e-06 -0)
(45.4581 -3.84841e-07 -0)
(45.459 -1.86072e-07 -0)
(45.459 -5.8284e-07 -0)
(45.459 -1.0151e-06 -0)
(45.459 -1.45563e-06 -0)
(45.4589 -1.92045e-06 -0)
(45.4589 -2.52596e-06 -0)
(45.4588 -3.43135e-06 -0)
(45.4588 -4.66936e-06 -0)
(45.4588 -6.03804e-06 -0)
(45.4588 -7.24629e-06 -0)
(45.4587 -8.20486e-06 -0)
(45.4587 -9.04848e-06 -0)
(45.4587 -9.73059e-06 -0)
(45.4587 -9.74897e-06 -0)
(45.4586 -8.6529e-06 -0)
(45.4585 -6.86281e-06 -0)
(45.4584 -5.48927e-06 -0)
(45.4583 -5.13144e-06 -0)
(45.4581 -5.48206e-06 -0)
(45.4579 -6.28812e-06 -0)
(45.4576 -7.43809e-06 -0)
(45.4573 -7.86827e-06 -0)
(45.457 -6.83388e-06 -0)
(45.4568 -6.50441e-06 -0)
(45.4568 -9.08944e-06 -0)
(45.457 -1.188e-05 -0)
(45.4573 -1.14677e-05 -0)
(45.4577 -1.01415e-05 -0)
(45.4579 -1.06538e-05 -0)
(45.4577 -1.13911e-05 -0)
(45.4574 -1.08489e-05 -0)
(45.4573 -9.9492e-06 -0)
(45.4577 -9.42873e-06 -0)
(45.458 -8.92019e-06 -0)
(45.4578 -8.09281e-06 -0)
(45.4577 -7.01316e-06 -0)
(45.458 -5.78025e-06 -0)
(45.458 -4.33474e-06 -0)
(45.458 -2.65044e-06 -0)
(45.4581 -7.66939e-07 -0)
(45.459 -3.80236e-07 -0)
(45.459 -1.14715e-06 -0)
(45.459 -1.94128e-06 -0)
(45.459 -2.74145e-06 -0)
(45.4589 -3.48284e-06 -0)
(45.4589 -4.14932e-06 -0)
(45.4588 -4.86609e-06 -0)
(45.4588 -5.83922e-06 -0)
(45.4588 -7.11486e-06 -0)
(45.4588 -8.4017e-06 -0)
(45.4587 -9.26008e-06 -0)
(45.4587 -9.54309e-06 -0)
(45.4587 -9.51029e-06 -0)
(45.4587 -9.33886e-06 -0)
(45.4586 -8.70708e-06 -0)
(45.4585 -7.26934e-06 -0)
(45.4584 -5.48201e-06 -0)
(45.4583 -4.36417e-06 -0)
(45.4581 -4.38223e-06 -0)
(45.4579 -5.30079e-06 -0)
(45.4576 -6.95669e-06 -0)
(45.4573 -8.9105e-06 -0)
(45.457 -1.00009e-05 -0)
(45.4568 -1.03329e-05 -0)
(45.4568 -1.19706e-05 -0)
(45.457 -1.49796e-05 -0)
(45.4573 -1.65855e-05 -0)
(45.4577 -1.6391e-05 -0)
(45.4579 -1.64487e-05 -0)
(45.4577 -1.69655e-05 -0)
(45.4574 -1.68059e-05 -0)
(45.4573 -1.59115e-05 -0)
(45.4577 -1.486e-05 -0)
(45.458 -1.37344e-05 -0)
(45.4578 -1.2313e-05 -0)
(45.4577 -1.05402e-05 -0)
(45.458 -8.50818e-06 -0)
(45.458 -6.22339e-06 -0)
(45.458 -3.68384e-06 -0)
(45.4581 -8.90678e-07 -0)
(45.459 -5.86217e-07 -0)
(45.459 -1.73794e-06 -0)
(45.459 -2.86311e-06 -0)
(45.459 -3.97911e-06 -0)
(45.4589 -5.05434e-06 -0)
(45.4589 -5.98682e-06 -0)
(45.4588 -6.70908e-06 -0)
(45.4588 -7.32636e-06 -0)
(45.4588 -8.07953e-06 -0)
(45.4588 -9.05272e-06 -0)
(45.4587 -9.92251e-06 -0)
(45.4587 -1.01692e-05 -0)
(45.4587 -9.64297e-06 -0)
(45.4587 -8.7557e-06 -0)
(45.4586 -7.92172e-06 -0)
(45.4585 -7.024e-06 -0)
(45.4585 -5.82163e-06 -0)
(45.4583 -4.69683e-06 -0)
(45.4581 -4.41346e-06 -0)
(45.4579 -5.29475e-06 -0)
(45.4576 -7.24345e-06 -0)
(45.4573 -9.99254e-06 -0)
(45.457 -1.26341e-05 -0)
(45.4568 -1.43231e-05 -0)
(45.4568 -1.596e-05 -0)
(45.457 -1.86279e-05 -0)
(45.4573 -2.10692e-05 -0)
(45.4577 -2.19907e-05 -0)
(45.4579 -2.21695e-05 -0)
(45.4577 -2.23901e-05 -0)
(45.4574 -2.22404e-05 -0)
(45.4573 -2.13293e-05 -0)
(45.4577 -1.98591e-05 -0)
(45.458 -1.80506e-05 -0)
(45.4578 -1.58788e-05 -0)
(45.4577 -1.33112e-05 -0)
(45.458 -1.0445e-05 -0)
(45.458 -7.35092e-06 -0)
(45.4581 -4.09899e-06 -0)
(45.4581 -6.9199e-07 -0)
(45.459 -7.94575e-07 -0)
(45.459 -2.36226e-06 -0)
(45.459 -3.85064e-06 -0)
(45.459 -5.23404e-06 -0)
(45.4589 -6.53596e-06 -0)
(45.4589 -7.72789e-06 -0)
(45.4588 -8.67281e-06 -0)
(45.4588 -9.22915e-06 -0)
(45.4588 -9.456e-06 -0)
(45.4588 -9.6345e-06 -0)
(45.4587 -9.94216e-06 -0)
(45.4587 -1.0117e-05 -0)
(45.4587 -9.65701e-06 -0)
(45.4587 -8.47005e-06 -0)
(45.4586 -7.11696e-06 -0)
(45.4585 -6.20035e-06 -0)
(45.4585 -5.74843e-06 -0)
(45.4583 -5.53197e-06 -0)
(45.4581 -5.71014e-06 -0)
(45.4579 -6.71833e-06 -0)
(45.4576 -8.8147e-06 -0)
(45.4573 -1.19698e-05 -0)
(45.457 -1.5571e-05 -0)
(45.4568 -1.85215e-05 -0)
(45.4568 -2.07082e-05 -0)
(45.457 -2.31282e-05 -0)
(45.4573 -2.56962e-05 -0)
(45.4577 -2.73078e-05 -0)
(45.4579 -2.77998e-05 -0)
(45.4577 -2.77534e-05 -0)
(45.4574 -2.7248e-05 -0)
(45.4573 -2.5974e-05 -0)
(45.4577 -2.38762e-05 -0)
(45.4581 -2.11412e-05 -0)
(45.4578 -1.7929e-05 -0)
(45.4577 -1.43671e-05 -0)
(45.458 -1.06492e-05 -0)
(45.458 -6.94103e-06 -0)
(45.4581 -3.40964e-06 -0)
(45.4581 -9.76783e-08 -0)
(45.459 -9.88708e-07 -0)
(45.459 -2.96437e-06 -0)
(45.459 -4.87418e-06 -0)
(45.459 -6.59495e-06 -0)
(45.4589 -8.07916e-06 -0)
(45.4589 -9.35871e-06 -0)
(45.4588 -1.04208e-05 -0)
(45.4588 -1.10974e-05 -0)
(45.4588 -1.11736e-05 -0)
(45.4588 -1.06787e-05 -0)
(45.4587 -9.98014e-06 -0)
(45.4587 -9.42084e-06 -0)
(45.4587 -8.88428e-06 -0)
(45.4587 -7.95983e-06 -0)
(45.4586 -6.63796e-06 -0)
(45.4585 -5.57023e-06 -0)
(45.4585 -5.42135e-06 -0)
(45.4583 -6.21874e-06 -0)
(45.4581 -7.6014e-06 -0)
(45.4579 -9.42604e-06 -0)
(45.4576 -1.18821e-05 -0)
(45.4573 -1.52278e-05 -0)
(45.457 -1.93e-05 -0)
(45.4568 -2.31812e-05 -0)
(45.4568 -2.61332e-05 -0)
(45.457 -2.85747e-05 -0)
(45.4573 -3.09496e-05 -0)
(45.4577 -3.27285e-05 -0)
(45.4579 -3.33541e-05 -0)
(45.4577 -3.29204e-05 -0)
(45.4574 -3.16114e-05 -0)
(45.4573 -2.93361e-05 -0)
(45.4577 -2.60339e-05 -0)
(45.4581 -2.19028e-05 -0)
(45.4578 -1.7295e-05 -0)
(45.4578 -1.25896e-05 -0)
(45.458 -8.16412e-06 -0)
(45.458 -4.30278e-06 -0)
(45.4581 -1.23348e-06 -0)
(45.4581 9.85718e-07 -0)
(45.459 -1.17397e-06 -0)
(45.459 -3.51426e-06 -0)
(45.459 -5.82006e-06 -0)
(45.459 -7.9524e-06 -0)
(45.4589 -9.73448e-06 -0)
(45.4589 -1.10853e-05 -0)
(45.4588 -1.20462e-05 -0)
(45.4588 -1.26319e-05 -0)
(45.4588 -1.26735e-05 -0)
(45.4588 -1.19387e-05 -0)
(45.4587 -1.0501e-05 -0)
(45.4587 -8.88163e-06 -0)
(45.4587 -7.62868e-06 -0)
(45.4587 -6.78597e-06 -0)
(45.4586 -6.03583e-06 -0)
(45.4585 -5.41276e-06 -0)
(45.4585 -5.53958e-06 -0)
(45.4583 -6.96457e-06 -0)
(45.4581 -9.54798e-06 -0)
(45.4579 -1.27127e-05 -0)
(45.4576 -1.60918e-05 -0)
(45.4573 -1.97993e-05 -0)
(45.457 -2.40486e-05 -0)
(45.4568 -2.84358e-05 -0)
(45.4568 -3.21069e-05 -0)
(45.457 -3.48341e-05 -0)
(45.4573 -3.6966e-05 -0)
(45.4577 -3.84122e-05 -0)
(45.4579 -3.86318e-05 -0)
(45.4577 -3.73259e-05 -0)
(45.4574 -3.45424e-05 -0)
(45.4573 -3.03956e-05 -0)
(45.4577 -2.50722e-05 -0)
(45.4581 -1.89928e-05 -0)
(45.4578 -1.27866e-05 -0)
(45.4578 -7.11201e-06 -0)
(45.458 -2.51134e-06 -0)
(45.458 6.91243e-07 -0)
(45.4581 2.35897e-06 -0)
(45.4581 2.55096e-06 -0)
(45.459 -1.3666e-06 -0)
(45.459 -4.05876e-06 -0)
(45.459 -6.6801e-06 -0)
(45.4589 -9.15748e-06 -0)
(45.4589 -1.13002e-05 -0)
(45.4589 -1.28737e-05 -0)
(45.4588 -1.37603e-05 -0)
(45.4588 -1.40226e-05 -0)
(45.4588 -1.3743e-05 -0)
(45.4588 -1.2828e-05 -0)
(45.4587 -1.11308e-05 -0)
(45.4587 -8.86243e-06 -0)
(45.4587 -6.72776e-06 -0)
(45.4587 -5.42864e-06 -0)
(45.4586 -5.08247e-06 -0)
(45.4585 -5.38708e-06 -0)
(45.4584 -6.32877e-06 -0)
(45.4583 -8.35876e-06 -0)
(45.4581 -1.17569e-05 -0)
(45.4579 -1.6138e-05 -0)
(45.4576 -2.07735e-05 -0)
(45.4573 -2.52744e-05 -0)
(45.457 -2.97886e-05 -0)
(45.4568 -3.43806e-05 -0)
(45.4568 -3.85099e-05 -0)
(45.457 -4.15746e-05 -0)
(45.4573 -4.34559e-05 -0)
(45.4577 -4.40851e-05 -0)
(45.4579 -4.30462e-05 -0)
(45.4578 -3.99171e-05 -0)
(45.4574 -3.4671e-05 -0)
(45.4573 -2.76808e-05 -0)
(45.4577 -1.96056e-05 -0)
(45.4581 -1.13351e-05 -0)
(45.4578 -3.86428e-06 -0)
(45.4578 1.95895e-06 -0)
(45.458 5.63804e-06 -0)
(45.458 7.06573e-06 -0)
(45.4581 6.47507e-06 -0)
(45.4581 4.26044e-06 -0)
(45.459 -1.56124e-06 -0)
(45.459 -4.63017e-06 -0)
(45.459 -7.55149e-06 -0)
(45.4589 -1.02548e-05 -0)
(45.4589 -1.2632e-05 -0)
(45.4589 -1.44516e-05 -0)
(45.4588 -1.5432e-05 -0)
(45.4588 -1.54501e-05 -0)
(45.4588 -1.46466e-05 -0)
(45.4588 -1.32505e-05 -0)
(45.4588 -1.13395e-05 -0)
(45.4587 -8.94409e-06 -0)
(45.4587 -6.44842e-06 -0)
(45.4587 -4.67049e-06 -0)
(45.4586 -4.30767e-06 -0)
(45.4585 -5.39206e-06 -0)
(45.4584 -7.52796e-06 -0)
(45.4583 -1.05622e-05 -0)
(45.4581 -1.46853e-05 -0)
(45.4579 -1.98774e-05 -0)
(45.4576 -2.55847e-05 -0)
(45.4573 -3.11123e-05 -0)
(45.457 -3.62151e-05 -0)
(45.4568 -4.10147e-05 -0)
(45.4568 -4.53139e-05 -0)
(45.457 -4.84479e-05 -0)
(45.4573 -4.97948e-05 -0)
(45.4577 -4.89465e-05 -0)
(45.4579 -4.55114e-05 -0)
(45.4578 -3.92273e-05 -0)
(45.4575 -3.03364e-05 -0)
(45.4573 -1.97292e-05 -0)
(45.4577 -8.75883e-06 -0)
(45.4581 1.08378e-06 -0)
(45.4578 8.52108e-06 -0)
(45.4578 1.28273e-05 -0)
(45.458 1.39852e-05 -0)
(45.458 1.25107e-05 -0)
(45.4581 9.30805e-06 -0)
(45.4581 5.2825e-06 -0)
(45.459 -1.73988e-06 -0)