/*--------------------------------*- C++ -*----------------------------------*\
  =========                 |
  \\      /  F ield         | OpenFOAM: The Open Source CFD Toolbox
   \\    /   O peration     | Website:  https://openfoam.org
    \\  /    A nd           | Version:  7
     \\/     M anipulation  |
\*---------------------------------------------------------------------------*/
FoamFile
{
    version     2.0;
    format      ascii;
    class       volScalarField;
    location    "4e-13";
    object      voltArho;
}
// * * * * * * * * * * * * * * * * * * * * * * * * * * * * * * * * * * * * * //

dimensions      [1 2 -3 0 0 -1 0];

internalField   uniform 0;

boundaryField
{
    upperBoundary
    {
        type            zeroGradient;
    }
    leftBoundary
    {
        type            zeroGradient;
    }
    rightBoundary
    {
        type            zeroGradient;
    }
    frontAndBack
    {
        type            empty;
    }
    highVoltage
    {
        type            fixedValue;
        value           nonuniform 0();
    }
    region0_to_dielectric
    {
        type            compressible::turbulentTemperatureCoupledBaffleMixed;
        refValue        uniform 0;
        refGradient     uniform 0;
        valueFraction   nonuniform List<scalar> 
100
(
0.74359
0.74359
0.74359
0.74359
0.74359
0.74359
0.74359
0.74359
0.74359
0.74359
0.74359
0.74359
0.74359
0.74359
0.74359
0.74359
0.74359
0.74359
0.74359
0.74359
0.74359
0.74359
0.74359
0.74359
0.74359
0.74359
0.74359
0.74359
0.74359
0.74359
0.74359
0.74359
0.74359
0.74359
0.74359
0.74359
0.74359
0.74359
0.74359
0.74359
0.74359
0.74359
0.74359
0.74359
0.74359
0.74359
0.74359
0.74359
0.74359
0.74359
0.74359
0.74359
0.74359
0.74359
0.74359
0.74359
0.74359
0.74359
0.74359
0.74359
0.74359
0.74359
0.74359
0.74359
0.74359
0.74359
0.74359
0.74359
0.74359
0.74359
0.74359
0.74359
0.74359
0.74359
0.74359
0.74359
0.74359
0.74359
0.74359
0.74359
0.74359
0.74359
0.74359
0.74359
0.74359
0.74359
0.74359
0.74359
0.74359
0.74359
0.74359
0.74359
0.74359
0.74359
0.74359
0.74359
0.74359
0.74359
0.74359
0.74359
)
;
        value           uniform 0;
        Tnbr            voltDrho;
        thicknessLayers 0();
        kappaLayers     0();
        kappaMethod     lookup;
        kappa           epsilonA;
        alphaAni        Anialpha;
    }
    procBoundary1to0
    {
        type            processor;
        value           uniform 0;
    }
}


// ************************************************************************* //
