/*--------------------------------*- C++ -*----------------------------------*\
  =========                 |
  \\      /  F ield         | OpenFOAM: The Open Source CFD Toolbox
   \\    /   O peration     | Website:  https://openfoam.org
    \\  /    A nd           | Version:  7
     \\/     M anipulation  |
\*---------------------------------------------------------------------------*/
FoamFile
{
    version     2.0;
    format      ascii;
    class       volScalarField;
    location    "7e-13";
    object      voltAext;
}
// * * * * * * * * * * * * * * * * * * * * * * * * * * * * * * * * * * * * * //

dimensions      [1 2 -3 0 0 -1 0];

internalField   nonuniform List<scalar> 
15000
(
104.147
102.549
100.984
99.4518
97.9516
96.4824
95.0435
93.6342
92.2537
90.9013
89.5763
88.2782
87.0061
85.7595
84.5378
83.3404
82.1667
81.0161
79.8881
78.7821
77.6977
76.6343
75.5914
74.5686
73.5653
72.5812
71.6158
70.6687
69.7394
68.8275
67.9327
67.0546
66.1928
65.3469
64.5165
63.7014
62.9012
62.1155
61.344
60.5865
59.8427
59.1121
58.3947
57.6899
56.9977
56.3177
55.6497
54.9934
54.3486
53.715
53.0925
52.4807
51.8794
51.2885
50.7078
50.1369
49.5758
49.0243
48.482
47.949
47.4249
46.9096
46.4029
45.9047
45.4149
44.9331
44.4594
43.9935
43.5352
43.0846
42.6413
42.2053
41.7764
41.3546
40.9396
40.5314
40.1298
39.7348
39.3461
38.9637
38.5875
38.2174
37.8533
37.495
37.1425
36.7956
36.4544
36.1186
35.7882
35.463
35.1432
34.8284
34.5187
34.2139
33.9141
33.619
33.3286
33.0429
32.7618
32.4853
108.129
106.49
104.885
103.312
101.772
100.264
98.7865
97.339
95.9207
94.5309
93.1691
91.8344
90.5263
89.2442
87.9873
86.7551
85.547
84.3625
83.2009
82.0619
80.9447
79.849
78.7741
77.7198
76.6854
75.6705
74.6746
73.6974
72.7385
71.7973
70.8735
69.9668
69.0767
68.2029
67.3449
66.5026
65.6754
64.8632
64.0655
63.2821
62.5126
61.7568
61.0143
60.2849
59.5683
58.8643
58.1725
57.4927
56.8247
56.1682
55.5231
54.8889
54.2656
53.653
53.0507
52.4586
51.8765
51.3042
50.7415
50.1883
49.6442
49.1092
48.5831
48.0657
47.5569
47.0564
46.5642
46.08
45.6038
45.1353
44.6745
44.2211
43.7751
43.3364
42.9047
42.48
42.0622
41.651
41.2465
40.8485
40.4569
40.0715
39.6923
39.3192
38.952
38.5907
38.2351
37.8852
37.5409
37.2021
36.8687
36.5406
36.2177
35.9
35.5873
35.2796
34.9768
34.6788
34.3856
34.097
112.077
110.397
108.752
107.141
105.562
104.015
102.5
101.015
99.5594
98.133
96.7349
95.3645
94.021
92.7038
91.4123
90.146
88.9041
87.6862
86.4917
85.32
84.1706
83.043
81.9368
80.8513
79.7862
78.7409
77.7151
76.7083
75.7201
74.75
73.7976
72.8627
71.9447
71.0433
70.1581
69.2888
68.4351
67.5966
66.773
65.964
65.1692
64.3884
63.6212
62.8674
62.1267
61.3989
60.6836
59.9806
59.2896
58.6105
57.9429
57.2867
56.6415
56.0073
55.3837
54.7706
54.1677
53.5749
52.992
52.4187
51.8549
51.3004
50.755
50.2185
49.6909
49.1718
48.6613
48.159
47.6648
47.1787
46.7004
46.2299
45.7669
45.3114
44.8631
44.4221
43.9881
43.561
43.1408
42.7272
42.3202
41.9197
41.5256
41.1377
40.756
40.3803
40.0106
39.6467
39.2886
38.9361
38.5892
38.2479
37.9119
37.5812
37.2558
36.9356
36.6204
36.3102
36.0049
35.7043
115.989
114.27
112.587
110.937
109.32
107.736
106.183
104.661
103.169
101.707
100.273
98.8677
97.4895
96.1379
94.8125
93.5125
92.2375
90.9868
89.7598
88.556
87.3749
86.216
85.0788
83.9627
82.8673
81.7922
80.7368
79.7008
78.6837
77.6851
76.7046
75.7417
74.7962
73.8676
72.9556
72.0598
71.1798
70.3154
69.4662
68.6318
67.812
67.0065
66.2149
65.437
64.6725
63.9211
63.1825
62.4566
61.7429
61.0414
60.3516
59.6735
59.0068
58.3512
57.7065
57.0725
56.4491
55.836
55.2329
54.6398
54.0564
53.4825
52.918
52.3627
51.8164
51.279
50.7502
50.23
49.7181
49.2145
48.7189
48.2313
47.7514
47.2793
46.8146
46.3573
45.9073
45.4644
45.0285
44.5995
44.1773
43.7618
43.3528
42.9503
42.5541
42.1641
41.7803
41.4025
41.0307
40.6647
40.3045
39.9499
39.6009
39.2574
38.9194
38.5866
38.2591
37.9368
37.6195
37.307
119.866
118.109
116.387
114.699
113.045
111.424
109.835
108.277
106.75
105.252
103.784
102.344
100.931
99.546
98.1872
96.8543
95.5466
94.2636
93.0047
91.7694
90.5572
89.3674
88.1997
87.0535
85.9283
84.8237
83.7393
82.6745
81.6289
80.6022
79.5939
78.6036
77.6309
76.6755
75.737
74.8149
73.9091
73.0191
72.1445
71.2852
70.4407
69.6107
68.7951
67.9933
67.2052
66.4306
65.669
64.9203
64.1842
63.4605
62.7489
62.0491
61.3609
60.6842
60.0187
59.3641
58.7203
58.087
57.4641
56.8513
56.2485
55.6555
55.072
54.498
53.9332
53.3775
52.8308
52.2927
51.7633
51.2423
50.7296
50.225
49.7284
49.2397
48.7587
48.2853
47.8194
47.3608
46.9095
46.4652
46.0278
45.5974
45.1737
44.7566
44.3461
43.9419
43.5441
43.1525
42.7671
42.3876
42.0141
41.6465
41.2846
40.9283
40.5777
40.2325
39.8927
39.5583
39.2291
38.905
123.707
121.912
120.153
118.429
116.738
115.081
113.456
111.863
110.301
108.769
107.266
105.792
104.346
102.928
101.536
100.171
98.8311
97.5164
96.2262
94.9599
93.717
92.4969
91.2992
90.1233
88.9688
87.8353
86.7221
85.629
84.5554
83.501
82.4653
81.4479
80.4484
79.4666
78.5019
77.554
76.6226
75.7073
74.8078
73.9238
73.0549
72.2008
71.3613
70.536
69.7247
68.927
68.1427
67.3716
66.6133
65.8676
65.1343
64.4131
63.7038
63.0061
62.3199
61.6449
60.9809
60.3277
59.6851
59.0529
58.4309
57.8188
57.2167
56.6241
56.041
55.4673
54.9026
54.3469
53.8001
53.2618
52.7321
52.2108
51.6976
51.1925
50.6954
50.206
49.7243
49.2501
48.7834
48.3239
47.8716
47.4263
46.988
46.5565
46.1317
45.7135
45.3018
44.8965
44.4975
44.1047
43.718
43.3374
42.9626
42.5937
42.2305
41.873
41.5211
41.1746
40.8336
40.4978
127.511
125.68
123.884
122.124
120.398
118.706
117.046
115.418
113.822
112.256
110.719
109.212
107.734
106.283
104.859
103.462
102.091
100.745
99.4238
98.1271
96.854
95.6041
94.3769
93.1719
91.9885
90.8264
89.685
88.564
87.4628
86.3811
85.3184
84.2743
83.2485
82.2405
81.2501
80.2767
79.32
78.3798
77.4557
76.5473
75.6543
74.7765
73.9134
73.0649
72.2305
71.4101
70.6034
69.81
69.0298
68.2624
67.5077
66.7653
66.0351
65.3167
64.6101
63.9149
63.2309
62.558
61.8959
61.2444
60.6033
59.9725
59.3517
58.7408
58.1396
57.5479
56.9656
56.3924
55.8283
55.273
54.7264
54.1884
53.6588
53.1375
52.6243
52.1191
51.6217
51.1321
50.6501
50.1756
49.7084
49.2484
48.7956
48.3497
47.9108
47.4786
47.0532
46.6343
46.2218
45.8158
45.416
45.0224
44.6349
44.2534
43.8779
43.5081
43.1441
42.7857
42.4329
42.0855
131.279
129.411
127.58
125.785
124.024
122.297
120.604
118.942
117.312
115.713
114.144
112.604
111.093
109.611
108.155
106.727
105.325
103.949
102.597
101.271
99.9679
98.6887
97.4325
96.1988
94.9871
93.7969
92.6278
91.4792
90.3509
89.2423
88.153
87.0827
86.0308
84.9971
83.9812
82.9827
82.0012
81.0364
80.0879
79.1555
78.2388
77.3374
76.4511
75.5796
74.7225
73.8797
73.0507
72.2354
71.4335
70.6447
69.8688
69.1055
68.3545
67.6157
66.8888
66.1737
65.4699
64.7775
64.0961
63.4255
62.7656
62.1162
61.477
60.848
60.2288
59.6194
59.0195
58.429
57.8477
57.2756
56.7123
56.1578
55.6119
55.0744
54.5453
54.0244
53.5116
53.0066
52.5095
52.02
51.538
51.0635
50.5962
50.1362
49.6832
49.2372
48.798
48.3656
47.9399
47.5207
47.1079
46.7015
46.3013
45.9073
45.5194
45.1375
44.7615
44.3913
44.0268
43.6678
135.009
133.107
131.241
129.412
127.617
125.856
124.129
122.434
120.772
119.14
117.539
115.967
114.425
112.911
111.425
109.966
108.534
107.127
105.746
104.39
103.058
101.75
100.466
99.2038
97.9642
96.7464
95.5499
94.3744
93.2193
92.0842
90.9688
89.8725
88.7951
87.7361
86.6951
85.6718
84.6657
83.6767
82.7043
81.7481
80.8079
79.8834
78.9741
78.0799
77.2004
76.3354
75.4846
74.6476
73.8242
73.0142
72.2174
71.4333
70.6619
69.9029
69.156
68.4211
67.6978
66.986
66.2856
65.5961
64.9176
64.2497
63.5924
62.9453
62.3083
61.6813
61.0641
60.4564
59.8582
59.2693
58.6895
58.1186
57.5565
57.0031
56.4583
55.9218
55.3935
54.8734
54.3612
53.8569
53.3603
52.8713
52.3898
51.9157
51.4487
50.989
50.5362
50.0904
49.6514
49.2192
48.7935
48.3744
47.9616
47.5552
47.1551
46.7611
46.3731
45.9912
45.6151
45.2447
138.702
136.766
134.866
133.003
131.175
129.382
127.622
125.895
124.2
122.537
120.904
119.302
117.728
116.184
114.667
113.179
111.716
110.281
108.87
107.486
106.125
104.789
103.476
102.187
100.92
99.6746
98.4513
97.2491
96.0677
94.9066
93.7654
92.6437
91.541
90.457
89.3913
88.3436
87.3134
86.3004
85.3044
84.3248
83.3615
82.414
81.4822
80.5656
79.664
78.7771
77.9045
77.0462
76.2016
75.3707
74.5531
73.7487
72.957
72.178
71.4113
70.6568
69.9142
69.1834
68.464
67.7559
67.0589
66.3728
65.6974
65.0325
64.378
63.7336
63.0991
62.4745
61.8595
61.2539
60.6577
60.0707
59.4926
58.9234
58.3629
57.811
57.2675
56.7323
56.2052
55.6862
55.1751
54.6717
54.1761
53.6879
53.2072
52.7338
52.2676
51.8085
51.3564
50.9111
50.4726
50.0409
49.6157
49.197
48.7847
48.3787
47.9789
47.5852
47.1977
46.8159
142.357
140.388
138.455
136.56
134.699
132.874
131.082
129.324
127.597
125.903
124.24
122.607
121.003
119.429
117.882
116.364
114.873
113.408
111.97
110.556
109.168
107.804
106.464
105.147
103.853
102.581
101.332
100.103
98.8959
97.7092
96.5426
95.3958
94.2683
93.1597
92.0697
90.9979
89.9439
88.9073
87.8879
86.8853
85.8992
84.9292
83.975
83.0363
82.1129
81.2043
80.3104
79.4309
78.5655
77.7139
76.8759
76.0512
75.2395
74.4407
73.6545
72.8807
72.119
71.3692
70.6312
69.9046
69.1894
68.4853
67.792
67.1095
66.4375
65.7759
65.1244
64.4829
63.8513
63.2293
62.6169
62.0138
61.4198
60.835
60.259
59.6918
59.1331
58.583
58.0412
57.5076
56.9821
56.4645
55.9548
55.4528
54.9584
54.4715
53.9919
53.5196
53.0544
52.5963
52.1451
51.7008
51.2632
50.8323
50.408
49.99
49.5785
49.1733
48.7742
48.3812
145.974
143.972
142.008
140.081
138.189
136.332
134.509
132.72
130.963
129.238
127.545
125.882
124.249
122.645
121.07
119.523
118.003
116.51
115.043
113.602
112.186
110.795
109.428
108.084
106.764
105.466
104.19
102.936
101.704
100.492
99.3001
98.1285
96.9766
95.8438
94.7299
93.6343
92.5569
91.4972
90.4548
89.4294
88.4208
87.4285
86.4523
85.4918
84.5468
83.617
82.702
81.8016
80.9155
80.0435
79.1853
78.3406
77.5092
76.6909
75.8854
75.0925
74.3119
73.5434
72.7869
72.0421
71.3088
70.5868
69.8759
69.176
68.4867
67.808
67.1397
66.4816
65.8335
65.1952
64.5667
63.9477
63.3381
62.7377
62.1463
61.564
60.9904
60.4254
59.869
59.321
58.7812
58.2495
57.7259
57.2101
56.7021
56.2018
55.709
55.2236
54.7455
54.2746
53.8108
53.3541
52.9042
52.4611
52.0248
51.5951
51.1719
50.7551
50.3447
49.9405
149.553
147.52
145.524
143.566
141.643
139.756
137.903
136.083
134.296
132.542
130.819
129.127
127.465
125.833
124.229
122.654
121.106
119.585
118.091
116.623
115.18
113.762
112.368
110.999
109.652
108.329
107.027
105.748
104.49
103.254
102.038
100.842
99.6658
98.5092
97.3716
96.2528
95.1522
94.0696
93.0046
91.9568
90.926
89.9118
88.9139
87.9319
86.9656
86.0148
85.079
84.158
83.2515
82.3594
81.4812
80.6168
79.7659
78.9283
78.1037
77.2919
76.4926
75.7057
74.9309
74.1681
73.4169
72.6773
71.9489
71.2317
70.5254
69.8298
69.1448
68.4702
67.8058
67.1515
66.507
65.8723
65.2471
64.6313
64.0248
63.4274
62.839
62.2594
61.6885
61.1261
60.5722
60.0266
59.4891
58.9597
58.4382
57.9246
57.4186
56.9202
56.4293
55.9458
55.4695
55.0004
54.5384
54.0833
53.635
53.1936
52.7588
52.3306
51.9089
51.4936
153.093
151.03
149.004
147.015
145.062
143.145
141.262
139.414
137.598
135.815
134.063
132.342
130.652
128.992
127.36
125.757
124.182
122.634
121.113
119.618
118.149
116.705
115.285
113.89
112.518
111.169
109.843
108.538
107.256
105.995
104.755
103.535
102.335
101.155
99.9947
98.8529
97.7296
96.6245
95.5372
94.4673
93.4147
92.3788
91.3595
90.3563
89.3691
88.3975
87.4411
86.4998
85.5733
84.6612
83.7634
82.8795
82.0093
81.1526
80.3092
79.4787
78.661
77.8559
77.063
76.2823
75.5135
74.7564
74.0108
73.2765
72.5533
71.8411
71.1396
70.4487
69.7681
69.0978
68.4376
67.7873
67.1467
66.5157
65.8941
65.2819
64.6787
64.0846
63.4993
62.9228
62.3549
61.7954
61.2443
60.7013
60.1665
59.6397
59.1207
58.6094
58.1058
57.6097
57.1211
56.6397
56.1656
55.6985
55.2385
54.7854
54.3392
53.8996
53.4668
53.0404
156.595
154.502
152.446
150.428
148.446
146.5
144.588
142.711
140.867
139.055
137.276
135.527
133.809
132.121
130.463
128.833
127.231
125.657
124.109
122.588
121.093
119.623
118.178
116.757
115.36
113.986
112.636
111.307
110.001
108.716
107.452
106.209
104.986
103.783
102.599
101.434
100.289
99.1615
98.0522
96.9607
95.8865
94.8293
93.7889
92.7649
91.7569
90.7648
89.7883
88.8269
87.8805
86.9488
86.0316
85.1285
84.2393
83.3638
82.5017
81.6528
80.8169
79.9937
79.183
78.3847
77.5984
76.8241
76.0614
75.3102
74.5703
73.8416
73.1238
72.4167
71.7202
71.0341
70.3583
69.6925
69.0367
68.3906
67.7542
67.1272
66.5095
65.901
65.3015
64.7109
64.1291
63.5559
62.9912
62.4349
61.8868
61.3469
60.815
60.291
59.7748
59.2662
58.7653
58.2718
57.7856
57.3068
56.8351
56.3704
55.9128
55.462
55.018
54.5808
160.058
157.936
155.852
153.805
151.795
149.82
147.88
145.975
144.103
142.264
140.457
138.682
136.937
135.222
133.537
131.88
130.252
128.652
127.079
125.532
124.012
122.516
121.046
119.601
118.179
116.781
115.406
114.054
112.724
111.415
110.128
108.862
107.616
106.39
105.184
103.997
102.83
101.68
100.55
99.4366
98.3412
97.2631
96.2019
95.1573
94.129
93.1167
92.1202
91.139
90.1731
89.222
88.2856
87.3635
86.4556
85.5615
84.681
83.8139
82.96
82.119
81.2907
80.4749
79.6714
78.88
78.1005
77.3326
76.5762
75.8311
75.0972
74.3741
73.6619
72.9602
72.2689
71.5879
70.917
70.256
69.6048
68.9632
68.3311
67.7083
67.0948
66.4903
65.8947
65.3079
64.7298
64.1602
63.599
63.0461
62.5014
61.9648
61.4361
60.9152
60.402
59.8965
59.3985
58.9079
58.4246
57.9485
57.4795
57.0176
56.5626
56.1146
163.481
161.331
159.219
157.145
155.107
153.105
151.138
149.206
147.307
145.441
143.607
141.805
140.034
138.293
136.582
134.9
133.246
131.62
130.022
128.45
126.905
125.385
123.89
122.42
120.975
119.553
118.154
116.778
115.425
114.093
112.783
111.494
110.226
108.978
107.75
106.541
105.352
104.181
103.029
101.895
100.779
99.68
98.5983
97.5334
96.485
95.4529
94.4366
93.436
92.4508
91.4806
90.5252
89.5845
88.658
87.7455
86.8469
85.9619
85.0902
84.2316
83.3859
82.5529
81.7324
80.9241
80.1279
79.3435
78.5708
77.8096
77.0597
76.3208
75.5929
74.8758
74.1693
73.4731
72.7873
72.1115
71.4457
70.7897
70.1433
69.5065
68.879
68.2607
67.6515
67.0512
66.4598
65.8771
65.3029
64.7372
64.1798
63.6306
63.0895
62.5564
62.0312
61.5137
61.0039
60.5016
60.0068
59.5194
59.0392
58.5662
58.1003
57.6415
166.866
164.689
162.55
160.449
158.384
156.355
154.362
152.403
150.477
148.585
146.726
144.898
143.101
141.334
139.598
137.89
136.212
134.561
132.938
131.342
129.772
128.228
126.709
125.216
123.747
122.301
120.879
119.48
118.104
116.75
115.417
114.106
112.816
111.546
110.296
109.066
107.855
106.664
105.49
104.336
103.199
102.08
100.978
99.893
98.8248
97.7731
96.7374
95.7176
94.7133
93.7243
92.7503
91.7911
90.8463
89.9158
88.9993
88.0965
87.2073
86.3313
85.4684
84.6184
83.7811
82.9561
82.1434
81.3428
80.5539
79.7767
79.011
78.2566
77.5133
76.7808
76.0592
75.3481
74.6475
73.9571
73.2769
72.6066
71.9461
71.2953
70.6539
70.022
69.3993
68.7857
68.1811
67.5854
66.9983
66.4199
65.8499
65.2883
64.735
64.1897
63.6525
63.1232
62.6017
62.0879
61.5818
61.0831
60.5918
60.1078
59.631
59.1616
170.212
168.008
165.843
163.715
161.625
159.57
157.551
155.566
153.615
151.697
149.812
147.959
146.137
144.346
142.585
140.853
139.149
137.474
135.827
134.207
132.613
131.046
129.504
127.987
126.494
125.026
123.581
122.16
120.761
119.385
118.03
116.697
115.385
114.094
112.823
111.571
110.34
109.127
107.933
106.758
105.601
104.462
103.34
102.236
101.148
100.077
99.0224
97.9837
96.9607
95.9531
94.9607
93.9832
93.0204
92.0721
91.1379
90.2176
89.311
88.4179
87.5381
86.6713
85.8173
84.9759
84.1469
83.3302
82.5254
81.7324
80.9511
80.1812
79.4226
78.6751
77.9385
77.2127
76.4974
75.7926
75.0981
74.4136
73.7392
73.0745
72.4195
71.7741
71.1381
70.5113
69.8936
69.285
68.6852
68.0941
67.5117
66.9378
66.3723
65.8151
65.266
64.725
64.1919
63.6667
63.1492
62.6393
62.137
61.6421
61.1546
60.6745
173.518
171.289
169.098
166.945
164.829
162.749
160.705
158.695
156.719
154.777
152.867
150.99
149.143
147.328
145.542
143.786
142.059
140.36
138.689
137.046
135.429
133.838
132.273
130.733
129.218
127.727
126.26
124.817
123.396
121.998
120.622
119.267
117.934
116.621
115.329
114.057
112.805
111.572
110.358
109.163
107.986
106.827
105.686
104.562
103.455
102.365
101.291
100.234
99.1925
98.1666
97.1561
96.1607
95.1801
94.2141
93.2625
92.325
91.4013
90.4913
89.5947
88.7113
87.8409
86.9833
86.1382
85.3055
84.485
83.6765
82.8798
82.0946
81.3209
80.5585
79.8071
79.0667
78.337
77.6178
76.9092
76.2107
75.5224
74.8441
74.1756
73.5168
72.8675
72.2277
71.5971
70.9757
70.3633
69.7598
69.165
68.5789
68.0014
67.4322
66.8714
66.3187
65.7742
65.2376
64.7089
64.188
63.6748
63.1691
62.6709
62.1803
176.785
174.531
172.316
170.138
167.998
165.893
163.824
161.79
159.79
157.824
155.89
153.988
152.118
150.279
148.47
146.69
144.94
143.218
141.524
139.858
138.218
136.605
135.017
133.455
131.918
130.405
128.916
127.451
126.009
124.589
123.191
121.816
120.461
119.128
117.816
116.523
115.251
113.998
112.764
111.549
110.353
109.174
108.014
106.871
105.745
104.636
103.544
102.468
101.409
100.365
99.3364
98.3233
97.3252
96.3419
95.373
94.4185
93.478
92.5513
91.6381
90.7384
89.8518
88.9781
88.1172
87.2688
86.4327
85.6088
84.7968
83.9966
83.208
82.4308
81.6648
80.9099
80.1659
79.4326
78.71
77.9977
77.2957
76.6039
75.922
75.25
74.5876
73.9348
73.2914
72.6574
72.0325
71.4166
70.8096
70.2115
69.622
69.041
68.4686
67.9044
67.3485
66.8007
66.2609
65.729
65.2049
64.6886
64.1798
63.6787
180.013
177.735
175.496
173.294
171.13
169.002
166.909
164.852
162.828
160.838
158.881
156.956
155.063
153.2
151.368
149.566
147.793
146.048
144.332
142.643
140.981
139.345
137.736
136.152
134.593
133.059
131.548
130.062
128.598
127.158
125.739
124.343
122.968
121.615
120.282
118.969
117.677
116.404
115.151
113.917
112.701
111.504
110.324
109.163
108.018
106.891
105.781
104.687
103.609
102.547
101.501
100.471
99.4555
98.4551
97.4693
96.4979
95.5408
94.5976
93.6682
92.7523
91.8497
90.9602
90.0835
89.2196
88.3682
87.5291
86.702
85.8869
85.0836
84.2918
83.5114
82.7422
81.9841
81.2368
80.5003
79.7744
79.0589
78.3536
77.6585
76.9734
76.2981
75.6325
74.9765
74.3299
73.6926
73.0645
72.4455
71.8353
71.234
70.6414
70.0574
69.4818
68.9147
68.3557
67.8049
67.2622
66.7274
66.2004
65.6812
65.1697
183.201
180.9
178.638
176.413
174.226
172.075
169.959
167.878
165.832
163.819
161.839
159.892
157.976
156.091
154.236
152.412
150.616
148.85
147.111
145.401
143.717
142.06
140.429
138.824
137.244
135.688
134.157
132.649
131.165
129.704
128.265
126.849
125.454
124.08
122.728
121.396
120.084
118.792
117.519
116.266
115.031
113.815
112.617
111.437
110.274
109.129
108.001
106.889
105.794
104.714
103.651
102.603
101.571
100.554
99.5511
98.5632
97.5896
96.6302
95.6847
94.7528
93.8344
92.9293
92.0372
91.158
90.2914
89.4372
88.5953
87.7655
86.9476
86.1414
85.3467
84.5634
83.7914
83.0303
82.2801
81.5407
80.8118
80.0933
79.3851
78.687
77.9989
77.3206
76.6521
75.9931
75.3436
74.7034
74.0723
73.4504
72.8374
72.2332
71.6378
71.0509
70.4726
69.9026
69.3409
68.7874
68.242
67.7045
67.1749
66.6532
186.35
184.027
181.742
179.495
177.285
175.112
172.974
170.871
168.803
166.768
164.766
162.796
160.858
158.951
157.075
155.229
153.412
151.624
149.864
148.132
146.427
144.748
143.096
141.47
139.869
138.293
136.741
135.214
133.709
132.228
130.769
129.333
127.918
126.525
125.153
123.802
122.47
121.159
119.868
118.596
117.343
116.108
114.892
113.694
112.513
111.35
110.204
109.075
107.962
106.865
105.785
104.72
103.671
102.637
101.618
100.614
99.6243
98.6489
97.6875
96.7399
95.8059
94.8854
93.978
93.0837
92.2021
91.3331
90.4766
89.6322
88.7999
87.9795
87.1707
86.3735
85.5876
84.8129
84.0492
83.2963
82.5542
81.8226
81.1015
80.3906
79.6898
78.999
78.3181
77.6468
76.9852
76.333
75.6901
75.0565
74.4319
73.8163
73.2095
72.6115
72.0221
71.4412
70.8687
70.3046
69.7486
69.2007
68.6609
68.1289
189.459
187.114
184.808
182.54
180.308
178.113
175.954
173.83
171.739
169.683
167.66
165.669
163.709
161.781
159.884
158.016
156.178
154.369
152.588
150.835
149.11
147.411
145.738
144.092
142.47
140.874
139.302
137.754
136.23
134.729
133.251
131.795
130.361
128.949
127.557
126.187
124.837
123.508
122.198
120.907
119.636
118.383
117.149
115.933
114.734
113.554
112.39
111.244
110.114
109.001
107.903
106.822
105.756
104.706
103.671
102.65
101.645
100.653
99.6764
98.7134
97.764
96.8283
95.9059
94.9966
94.1002
93.2166
92.3456
91.4869
90.6404
89.8058
88.9832
88.1721
87.3726
86.5844
85.8073
85.0413
84.2861
83.5416
82.8076
82.084
81.3707
80.6676
79.9743
79.291
78.6173
77.9533
77.2987
76.6534
76.0174
75.3905
74.7725
74.1634
73.5631
72.9714
72.3882
71.8135
71.2471
70.6889
70.1389
69.5968
192.529
190.164
187.837
185.547
183.295
181.079
178.899
176.754
174.643
172.565
170.521
168.509
166.529
164.58
162.662
160.774
158.916
157.086
155.285
153.511
151.766
150.047
148.354
146.688
145.047
143.43
141.839
140.272
138.728
137.208
135.71
134.235
132.782
131.351
129.941
128.552
127.184
125.836
124.508
123.199
121.91
120.639
119.387
118.154
116.938
115.74
114.56
113.396
112.25
111.119
110.006
108.908
107.826
106.759
105.708
104.672
103.651
102.644
101.651
100.673
99.7086
98.7578
97.8205
96.8965
95.9856
95.0875
94.2022
93.3293
92.4688
91.6204
90.784
89.9593
89.1463
88.3448
87.5545
86.7754
86.0072
85.2499
84.5033
83.7672
83.0415
82.3261
81.6208
80.9254
80.2399
79.5641
78.8979
78.2412
77.5938
76.9557
76.3266
75.7065
75.0954
74.493
73.8992
73.314
72.7373
72.1689
71.6088
71.0568
195.56
193.175
190.827
188.518
186.246
184.009
181.809
179.643
177.512
175.415
173.35
171.318
169.318
167.349
165.411
163.503
161.624
159.774
157.953
156.16
154.395
152.656
150.944
149.258
147.598
145.962
144.352
142.765
141.202
139.663
138.147
136.653
135.182
133.732
132.304
130.897
129.51
128.144
126.798
125.472
124.165
122.877
121.608
120.357
119.124
117.909
116.712
115.532
114.369
113.222
112.092
110.978
109.88
108.798
107.731
106.679
105.642
104.62
103.612
102.619
101.639
100.674
99.7219
98.7834
97.858
96.9457
96.0463
95.1594
94.285
93.4229
92.5729
91.7349
90.9085
90.0938
89.2905
88.4985
87.7176
86.9476
86.1885
85.44
84.7021
83.9745
83.2572
82.55
81.8527
81.1654
80.4877
79.8196
79.161
78.5117
77.8717
77.2408
76.6189
76.0059
75.4017
74.8062
74.2192
73.6407
73.0706
72.5087
198.552
196.147
193.78
191.452
189.16
186.904
184.684
182.499
180.348
178.231
176.147
174.095
172.075
170.087
168.129
166.201
164.303
162.434
160.594
158.782
156.997
155.239
153.508
151.803
150.124
148.469
146.84
145.235
143.654
142.096
140.561
139.049
137.56
136.092
134.646
133.221
131.816
130.433
129.069
127.725
126.401
125.096
123.81
122.542
121.292
120.061
118.847
117.65
116.471
115.308
114.162
113.032
111.919
110.821
109.738
108.671
107.619
106.581
105.559
104.551
103.556
102.576
101.61
100.657
99.7175
98.7911
97.8777
96.9771
96.089
95.2134
94.35
93.4986
92.6592
91.8314
91.0152
90.2105
89.4169
88.6345
87.863
87.1023
86.3522
85.6127
84.8835
84.1646
83.4557
82.7569
82.0678
81.3885
80.7188
80.0586
79.4077
78.7661
78.1335
77.5101
76.8955
76.2897
75.6926
75.1041
74.5241
73.9524
201.504
199.081
196.696
194.348
192.037
189.763
187.524
185.32
183.15
181.014
178.911
176.84
174.802
172.794
170.817
168.871
166.954
165.066
163.207
161.376
159.572
157.796
156.046
154.322
152.624
150.952
149.304
147.681
146.081
144.505
142.953
141.423
139.915
138.43
136.966
135.524
134.102
132.701
131.32
129.959
128.618
127.296
125.993
124.709
123.443
122.195
120.965
119.752
118.556
117.378
116.216
115.071
113.941
112.828
111.73
110.648
109.581
108.528
107.491
106.468
105.459
104.465
103.484
102.517
101.564
100.624
99.6964
98.7821
97.8806
96.9916
96.115
95.2505
94.3981
93.5575
92.7286
91.9112
91.1052
90.3104
89.5267
88.7539
87.9919
87.2405
86.4996
85.769
85.0487
84.3385
83.6383
82.9479
82.2672
81.5961
80.9344
80.2822
79.6392
79.0053
78.3804
77.7645
77.1574
76.559
75.9692
75.3879
204.418
201.977
199.573
197.208
194.879
192.586
190.329
188.107
185.919
183.764
181.643
179.554
177.496
175.471
173.475
171.51
169.575
167.669
165.791
163.942
162.12
160.325
158.557
156.816
155.1
153.409
151.743
150.102
148.485
146.892
145.321
143.774
142.249
140.746
139.265
137.806
136.367
134.949
133.551
132.174
130.816
129.477
128.158
126.857
125.575
124.311
123.065
121.836
120.625
119.431
118.253
117.093
115.948
114.819
113.707
112.609
111.528
110.461
109.409
108.371
107.348
106.34
105.345
104.364
103.397
102.443
101.502
100.574
99.6596
98.7574
97.8677
96.9904
96.1251
95.2718
94.4304
93.6006
92.7822
91.9753
91.1795
90.3947
89.6209
88.8578
88.1053
87.3633
86.6316
85.9102
85.1989
84.4975
83.8059
83.1241
82.4518
81.789
81.1356
80.4915
79.8565
79.2305
78.6135
78.0052
77.4058
76.8149
207.292
204.834
202.414
200.031
197.684
195.374
193.099
190.859
188.654
186.481
184.342
182.235
180.16
178.116
176.103
174.12
172.167
170.243
168.348
166.48
164.641
162.829
161.043
159.284
157.55
155.842
154.159
152.5
150.865
149.255
147.667
146.103
144.561
143.041
141.543
140.066
138.611
137.177
135.762
134.368
132.994
131.64
130.304
128.987
127.689
126.409
125.147
123.903
122.677
121.467
120.274
119.098
117.939
116.795
115.668
114.556
113.459
112.378
111.312
110.26
109.223
108.2
107.192
106.197
105.216
104.249
103.295
102.354
101.426
100.511
99.6082
98.7181
97.8402
96.9744
96.1205
95.2784
94.4479
93.6289
92.8212
92.0247
91.2391
90.4645
89.7005
88.9472
88.2043
87.4718
86.7495
86.0372
85.3349
84.6425
83.9597
83.2865
82.6229
81.9685
81.3235
80.6876
80.0607
79.4428
78.8337
78.2334
210.128
207.653
205.216
202.817
200.454
198.127
195.835
193.578
191.355
189.165
187.009
184.885
182.792
180.731
178.701
176.701
174.73
172.789
170.876
168.991
167.135
165.305
163.502
161.725
159.975
158.249
156.549
154.873
153.222
151.594
149.99
148.409
146.85
145.314
143.799
142.306
140.835
139.384
137.953
136.543
135.153
133.783
132.431
131.099
129.785
128.49
127.212
125.953
124.711
123.486
122.279
121.088
119.913
118.755
117.613
116.487
115.376
114.28
113.2
112.134
111.084
110.047
109.025
108.017
107.022
106.042
105.074
104.12
103.18
102.252
101.336
100.434
99.5431
98.665
97.7989
96.9447
96.1022
95.2713
94.4518
93.6436
92.8465
92.0604
91.2852
90.5206
89.7667
89.0232
88.29
87.567
86.8541
86.1511
85.458
84.7746
84.1007
83.4363
82.7813
82.1356
81.499
80.8715
80.2529
79.6432
212.926
210.435
207.982
205.566
203.187
200.844
198.536
196.262
194.023
191.817
189.643
187.503
185.393
183.316
181.268
179.251
177.264
175.306
173.376
171.475
169.601
167.754
165.935
164.141
162.374
160.632
158.915
157.223
155.555
153.911
152.29
150.692
149.117
147.565
146.034
144.525
143.037
141.57
140.124
138.698
137.292
135.906
134.539
133.191
131.862
130.552
129.259
127.985
126.728
125.488
124.266
123.061
121.872
120.699
119.543
118.402
117.277
116.168
115.073
113.994
112.93
111.88
110.844
109.822
108.815
107.821
106.841
105.874
104.92
103.98
103.052
102.137
101.234
100.344
99.4654
98.5992
97.7448
96.9022
96.0711
95.2513
94.4429
93.6455
92.8591
92.0835
91.3186
90.5643
89.8204
89.0868
88.3634
87.65
86.9466
86.253
85.5691
84.8948
84.2299
83.5745
82.9283
82.2912
81.6633
81.0442
215.684
213.179
210.711
208.279
205.885
203.526
201.202
198.912
196.657
194.435
192.246
190.089
187.963
185.869
183.806
181.772
179.769
177.794
175.848
173.93
172.04
170.177
168.341
166.532
164.748
162.99
161.256
159.548
157.864
156.203
154.567
152.953
151.362
149.794
148.247
146.722
145.219
143.737
142.275
140.833
139.412
138.011
136.628
135.266
133.921
132.596
131.289
129.999
128.728
127.474
126.237
125.017
123.814
122.627
121.456
120.302
119.163
118.04
116.932
115.839
114.761
113.698
112.649
111.614
110.593
109.587
108.594
107.614
106.648
105.695
104.755
103.827
102.912
102.01
101.12
100.242
99.3758
98.5216
97.679
96.8479
96.0282
95.2196
94.4222
93.6357
92.86
92.095
91.3405
90.5964
89.8626
89.139
88.4254
87.7217
87.0279
86.3437
85.6692
85.0041
84.3484
83.702
83.0647
82.4364
218.405
215.885
213.402
210.956
208.547
206.172
203.833
201.529
199.258
197.021
194.816
192.643
190.502
188.392
186.313
184.264
182.244
180.254
178.292
176.358
174.452
172.573
170.721
168.896
167.096
165.322
163.573
161.849
160.149
158.473
156.82
155.191
153.585
152
150.439
148.898
147.38
145.882
144.405
142.948
141.512
140.096
138.698
137.321
135.962
134.622
133.3
131.996
130.71
129.442
128.19
126.956
125.739
124.538
123.354
122.186
121.033
119.897
118.775
117.669
116.578
115.501
114.439
113.392
112.358
111.339
110.333
109.341
108.362
107.397
106.445
105.505
104.578
103.664
102.762
101.873
100.995
100.129
99.2754
98.4331
97.6022
96.7827
95.9744
95.1771
94.3907
93.6151
92.8501
92.0957
91.3516
90.6179
89.8943
89.1807
88.477
87.7831
87.099
86.4244
85.7593
85.1035
84.4571
83.8197
221.087
218.553
216.057
213.597
211.173
208.784
206.431
204.111
201.826
199.573
197.354
195.166
193.01
190.885
188.79
186.726
184.691
182.685
180.707
178.758
176.837
174.943
173.075
171.234
169.419
167.629
165.865
164.125
162.41
160.719
159.051
157.406
155.785
154.185
152.608
151.053
149.519
148.006
146.515
145.043
143.592
142.161
140.749
139.357
137.984
136.629
135.293
133.975
132.675
131.392
130.127
128.879
127.648
126.434
125.236
124.054
122.888
121.738
120.603
119.484
118.38
117.29
116.215
115.155
114.109
113.077
112.059
111.055
110.064
109.086
108.122
107.17
106.232
105.306
104.392
103.491
102.602
101.725
100.86
100.007
99.165
98.3346
97.5155
96.7076
95.9106
95.1246
94.3493
93.5846
92.8304
92.0866
91.3531
90.6297
89.9163
89.2129
88.5192
87.8352
87.1608
86.4959
85.8403
85.194
223.732
221.185
218.675
216.201
213.764
211.361
208.994
206.66
204.36
202.094
199.859
197.657
195.486
193.346
191.237
189.158
187.108
185.087
183.095
181.131
179.194
177.285
175.403
173.546
171.716
169.912
168.132
166.378
164.647
162.941
161.258
159.599
157.962
156.348
154.756
153.186
151.638
150.11
148.604
147.118
145.652
144.207
142.781
141.374
139.987
138.618
137.268
135.936
134.622
133.325
132.047
130.785
129.54
128.313
127.101
125.906
124.727
123.564
122.416
121.284
120.167
119.065
117.977
116.904
115.846
114.802
113.771
112.755
111.752
110.762
109.786
108.823
107.873
106.935
106.01
105.098
104.198
103.309
102.433
101.569
100.716
99.8752
99.0455
98.227
97.4197
96.6233
95.8378
95.063
94.2989
93.5452
92.8018
92.0687
91.3458
90.6328
89.9297
89.2365
88.5529
87.8789
87.2143
86.5592
226.339
223.779
221.256
218.77
216.319
213.904
211.523
209.175
206.862
204.581
202.333
200.117