/*--------------------------------*- C++ -*----------------------------------*\
  =========                 |
  \\      /  F ield         | OpenFOAM: The Open Source CFD Toolbox
   \\    /   O peration     | Website:  https://openfoam.org
    \\  /    A nd           | Version:  7
     \\/     M anipulation  |
\*---------------------------------------------------------------------------*/
FoamFile
{
    version     2.0;
    format      ascii;
    class       volVectorField;
    location    "1.3e-12";
    object      EAext;
}
// * * * * * * * * * * * * * * * * * * * * * * * * * * * * * * * * * * * * * //

dimensions      [1 1 -3 0 0 -1 0];

internalField   nonuniform List<vector> 
15000
(
(269561 -1.60206e+06 -0)
(265305 -1.59033e+06 -0)
(261041 -1.57883e+06 -0)
(256827 -1.56749e+06 -0)
(252662 -1.5563e+06 -0)
(248554 -1.54526e+06 -0)
(244504 -1.53438e+06 -0)
(240511 -1.52365e+06 -0)
(236572 -1.51308e+06 -0)
(232686 -1.50265e+06 -0)
(228852 -1.49238e+06 -0)
(225070 -1.48226e+06 -0)
(221337 -1.47228e+06 -0)
(217653 -1.46246e+06 -0)
(214018 -1.45277e+06 -0)
(210429 -1.44324e+06 -0)
(206886 -1.43384e+06 -0)
(203389 -1.42459e+06 -0)
(199935 -1.41548e+06 -0)
(196524 -1.40651e+06 -0)
(193155 -1.39767e+06 -0)
(189828 -1.38898e+06 -0)
(186540 -1.38042e+06 -0)
(183291 -1.37199e+06 -0)
(180081 -1.3637e+06 -0)
(176908 -1.35554e+06 -0)
(173772 -1.34752e+06 -0)
(170671 -1.33962e+06 -0)
(167605 -1.33186e+06 -0)
(164573 -1.32422e+06 -0)
(161574 -1.31672e+06 -0)
(158607 -1.30933e+06 -0)
(155672 -1.30208e+06 -0)
(152768 -1.29495e+06 -0)
(149894 -1.28795e+06 -0)
(147050 -1.28107e+06 -0)
(144234 -1.27431e+06 -0)
(141446 -1.26768e+06 -0)
(138686 -1.26116e+06 -0)
(135952 -1.25477e+06 -0)
(133243 -1.24849e+06 -0)
(130561 -1.24234e+06 -0)
(127903 -1.2363e+06 -0)
(125269 -1.23038e+06 -0)
(122658 -1.22457e+06 -0)
(120070 -1.21888e+06 -0)
(117505 -1.21331e+06 -0)
(114961 -1.20785e+06 -0)
(112439 -1.20251e+06 -0)
(109937 -1.19728e+06 -0)
(107455 -1.19216e+06 -0)
(104992 -1.18715e+06 -0)
(102549 -1.18225e+06 -0)
(100124 -1.17747e+06 -0)
(97716.8 -1.17279e+06 -0)
(95327.3 -1.16823e+06 -0)
(92954.8 -1.16377e+06 -0)
(90598.7 -1.15943e+06 -0)
(88258.7 -1.15519e+06 -0)
(85934.2 -1.15105e+06 -0)
(83624.8 -1.14703e+06 -0)
(81330.1 -1.14311e+06 -0)
(79049.6 -1.1393e+06 -0)
(76782.8 -1.13559e+06 -0)
(74529.3 -1.13199e+06 -0)
(72288.7 -1.12849e+06 -0)
(70060.6 -1.1251e+06 -0)
(67844.6 -1.12181e+06 -0)
(65640.2 -1.11863e+06 -0)
(63447 -1.11555e+06 -0)
(61264.7 -1.11257e+06 -0)
(59092.8 -1.10969e+06 -0)
(56931 -1.10692e+06 -0)
(54778.8 -1.10425e+06 -0)
(52635.9 -1.10168e+06 -0)
(50501.8 -1.09921e+06 -0)
(48376.3 -1.09684e+06 -0)
(46258.9 -1.09457e+06 -0)
(44149.2 -1.0924e+06 -0)
(42047 -1.09034e+06 -0)
(39951.7 -1.08837e+06 -0)
(37863 -1.0865e+06 -0)
(35780.6 -1.08473e+06 -0)
(33704 -1.08307e+06 -0)
(31633 -1.0815e+06 -0)
(29567.1 -1.08003e+06 -0)
(27505.9 -1.07866e+06 -0)
(25449 -1.07738e+06 -0)
(23395.9 -1.07621e+06 -0)
(21346.1 -1.07513e+06 -0)
(19299.2 -1.07416e+06 -0)
(17255.1 -1.07328e+06 -0)
(15213.4 -1.07249e+06 -0)
(13174.3 -1.07181e+06 -0)
(11138.1 -1.07122e+06 -0)
(9104.75 -1.07073e+06 -0)
(7072.68 -1.07034e+06 -0)
(5037 -1.07005e+06 -0)
(2992.46 -1.06987e+06 -0)
(983.757 -1.0698e+06 -0)
(281339 -1.59782e+06 -0)
(276990 -1.58606e+06 -0)
(272449 -1.57457e+06 -0)
(268061 -1.56328e+06 -0)
(263745 -1.55215e+06 -0)
(259485 -1.54117e+06 -0)
(255282 -1.53035e+06 -0)
(251135 -1.51967e+06 -0)
(247044 -1.50915e+06 -0)
(243007 -1.49878e+06 -0)
(239024 -1.48857e+06 -0)
(235093 -1.47849e+06 -0)
(231213 -1.46857e+06 -0)
(227384 -1.45879e+06 -0)
(223604 -1.44916e+06 -0)
(219872 -1.43967e+06 -0)
(216187 -1.43032e+06 -0)
(212549 -1.42111e+06 -0)
(208955 -1.41204e+06 -0)
(205406 -1.40311e+06 -0)
(201900 -1.39432e+06 -0)
(198436 -1.38567e+06 -0)
(195013 -1.37715e+06 -0)
(191630 -1.36876e+06 -0)
(188287 -1.36051e+06 -0)
(184982 -1.35239e+06 -0)
(181714 -1.3444e+06 -0)
(178483 -1.33654e+06 -0)
(175288 -1.32881e+06 -0)
(172127 -1.32121e+06 -0)
(169001 -1.31373e+06 -0)
(165908 -1.30639e+06 -0)
(162848 -1.29916e+06 -0)
(159819 -1.29207e+06 -0)
(156822 -1.28509e+06 -0)
(153854 -1.27824e+06 -0)
(150917 -1.27151e+06 -0)
(148007 -1.26491e+06 -0)
(145126 -1.25842e+06 -0)
(142273 -1.25205e+06 -0)
(139446 -1.2458e+06 -0)
(136645 -1.23967e+06 -0)
(133870 -1.23366e+06 -0)
(131119 -1.22776e+06 -0)
(128393 -1.22198e+06 -0)
(125690 -1.21632e+06 -0)
(123010 -1.21076e+06 -0)
(120352 -1.20533e+06 -0)
(117716 -1.2e+06 -0)
(115102 -1.19479e+06 -0)
(112508 -1.18969e+06 -0)
(109934 -1.18471e+06 -0)
(107380 -1.17983e+06 -0)
(104845 -1.17506e+06 -0)
(102328 -1.17041e+06 -0)
(99829.5 -1.16586e+06 -0)
(97348.4 -1.16142e+06 -0)
(94884.3 -1.15709e+06 -0)
(92436.7 -1.15286e+06 -0)
(90005.1 -1.14875e+06 -0)
(87589.2 -1.14474e+06 -0)
(85188.3 -1.14083e+06 -0)
(82802.1 -1.13704e+06 -0)
(80430.1 -1.13334e+06 -0)
(78071.8 -1.12975e+06 -0)
(75726.9 -1.12627e+06 -0)
(73394.8 -1.12289e+06 -0)
(71075.2 -1.11961e+06 -0)
(68767.6 -1.11644e+06 -0)
(66471.6 -1.11337e+06 -0)
(64186.8 -1.1104e+06 -0)
(61912.8 -1.10754e+06 -0)
(59649.1 -1.10477e+06 -0)
(57395.4 -1.10211e+06 -0)
(55151.3 -1.09955e+06 -0)
(52916.3 -1.09709e+06 -0)
(50690.1 -1.09473e+06 -0)
(48472.3 -1.09247e+06 -0)
(46262.5 -1.09031e+06 -0)
(44060.3 -1.08825e+06 -0)
(41865.3 -1.08629e+06 -0)
(39677.2 -1.08443e+06 -0)
(37495.5 -1.08267e+06 -0)
(35319.9 -1.08101e+06 -0)
(33150 -1.07944e+06 -0)
(30985.4 -1.07798e+06 -0)
(28825.7 -1.07661e+06 -0)
(26670.4 -1.07534e+06 -0)
(24519.1 -1.07417e+06 -0)
(22371.3 -1.0731e+06 -0)
(20226.6 -1.07213e+06 -0)
(18084.8 -1.07125e+06 -0)
(15945.7 -1.07047e+06 -0)
(13809.4 -1.06979e+06 -0)
(11676 -1.0692e+06 -0)
(9545.33 -1.06871e+06 -0)
(7414.32 -1.06832e+06 -0)
(5274.25 -1.06803e+06 -0)
(3105.37 -1.06784e+06 -0)
(1005.17 -1.06776e+06 -0)
(292979 -1.59328e+06 -0)
(288550 -1.58176e+06 -0)
(283820 -1.57035e+06 -0)
(279250 -1.55911e+06 -0)
(274770 -1.54803e+06 -0)
(270357 -1.53711e+06 -0)
(266002 -1.52634e+06 -0)
(261703 -1.51573e+06 -0)
(257461 -1.50527e+06 -0)
(253275 -1.49495e+06 -0)
(249143 -1.48478e+06 -0)
(245065 -1.47477e+06 -0)
(241039 -1.46489e+06 -0)
(237065 -1.45517e+06 -0)
(233142 -1.44558e+06 -0)
(229268 -1.43614e+06 -0)
(225442 -1.42684e+06 -0)
(221664 -1.41768e+06 -0)
(217932 -1.40865e+06 -0)
(214245 -1.39977e+06 -0)
(210603 -1.39102e+06 -0)
(207003 -1.38241e+06 -0)
(203446 -1.37393e+06 -0)
(199930 -1.36558e+06 -0)
(196454 -1.35737e+06 -0)
(193018 -1.34928e+06 -0)
(189620 -1.34133e+06 -0)
(186260 -1.33351e+06 -0)
(182936 -1.32582e+06 -0)
(179648 -1.31825e+06 -0)
(176396 -1.31081e+06 -0)
(173177 -1.30349e+06 -0)
(169992 -1.2963e+06 -0)
(166840 -1.28924e+06 -0)
(163719 -1.28229e+06 -0)
(160630 -1.27547e+06 -0)
(157571 -1.26877e+06 -0)
(154541 -1.26219e+06 -0)
(151540 -1.25574e+06 -0)
(148568 -1.24939e+06 -0)
(145623 -1.24317e+06 -0)
(142705 -1.23707e+06 -0)
(139812 -1.23108e+06 -0)
(136946 -1.22521e+06 -0)
(134104 -1.21945e+06 -0)
(131287 -1.21381e+06 -0)
(128493 -1.20828e+06 -0)
(125722 -1.20287e+06 -0)
(122973 -1.19756e+06 -0)
(120247 -1.19237e+06 -0)
(117541 -1.1873e+06 -0)
(114857 -1.18233e+06 -0)
(112192 -1.17747e+06 -0)
(109547 -1.17272e+06 -0)
(106922 -1.16808e+06 -0)
(104314 -1.16355e+06 -0)
(101725 -1.15913e+06 -0)
(99153.5 -1.15482e+06 -0)
(96598.8 -1.15061e+06 -0)
(94060.7 -1.14651e+06 -0)
(91538.6 -1.14251e+06 -0)
(89032.1 -1.13863e+06 -0)
(86540.7 -1.13484e+06 -0)
(84063.9 -1.13116e+06 -0)
(81601.3 -1.12759e+06 -0)
(79152.4 -1.12412e+06 -0)
(76716.8 -1.12075e+06 -0)
(74294.1 -1.11749e+06 -0)
(71883.7 -1.11433e+06 -0)
(69485.2 -1.11127e+06 -0)
(67098.3 -1.10831e+06 -0)
(64722.5 -1.10545e+06 -0)
(62357.4 -1.1027e+06 -0)
(60002.6 -1.10005e+06 -0)
(57657.6 -1.0975e+06 -0)
(55322.1 -1.09504e+06 -0)
(52995.7 -1.09269e+06 -0)
(50677.8 -1.09044e+06 -0)
(48368.3 -1.08829e+06 -0)
(46066.5 -1.08624e+06 -0)
(43772.2 -1.08429e+06 -0)
(41484.9 -1.08243e+06 -0)
(39204.4 -1.08068e+06 -0)
(36930.1 -1.07902e+06 -0)
(34661.7 -1.07746e+06 -0)
(32398.8 -1.076e+06 -0)
(30140.9 -1.07464e+06 -0)
(27887.6 -1.07338e+06 -0)
(25638.5 -1.07221e+06 -0)
(23393 -1.07114e+06 -0)
(21150.8 -1.07017e+06 -0)
(18911.6 -1.0693e+06 -0)
(16675.3 -1.06852e+06 -0)
(14441.9 -1.06784e+06 -0)
(12211.7 -1.06726e+06 -0)
(9984.3 -1.06677e+06 -0)
(7756.26 -1.06638e+06 -0)
(5517.06 -1.06608e+06 -0)
(3257.65 -1.06588e+06 -0)
(1061.23 -1.06576e+06 -0)
(304597 -1.5885e+06 -0)
(299915 -1.57713e+06 -0)
(295096 -1.56584e+06 -0)
(290381 -1.55467e+06 -0)
(285742 -1.54365e+06 -0)
(281172 -1.53279e+06 -0)
(276663 -1.52208e+06 -0)
(272214 -1.51152e+06 -0)
(267823 -1.50111e+06 -0)
(263488 -1.49086e+06 -0)
(259208 -1.48075e+06 -0)
(254984 -1.47078e+06 -0)
(250814 -1.46096e+06 -0)
(246696 -1.45129e+06 -0)
(242631 -1.44175e+06 -0)
(238616 -1.43236e+06 -0)
(234650 -1.42311e+06 -0)
(230733 -1.41399e+06 -0)
(226864 -1.40501e+06 -0)
(223041 -1.39617e+06 -0)
(219262 -1.38747e+06 -0)
(215528 -1.3789e+06 -0)
(211838 -1.37046e+06 -0)
(208189 -1.36216e+06 -0)
(204582 -1.35398e+06 -0)
(201016 -1.34594e+06 -0)
(197489 -1.33803e+06 -0)
(194000 -1.33024e+06 -0)
(190549 -1.32258e+06 -0)
(187135 -1.31505e+06 -0)
(183756 -1.30765e+06 -0)
(180413 -1.30037e+06 -0)
(177104 -1.29321e+06 -0)
(173829 -1.28618e+06 -0)
(170586 -1.27926e+06 -0)
(167375 -1.27247e+06 -0)
(164195 -1.26581e+06 -0)
(161046 -1.25926e+06 -0)
(157926 -1.25283e+06 -0)
(154836 -1.24651e+06 -0)
(151773 -1.24032e+06 -0)
(148738 -1.23424e+06 -0)
(145730 -1.22828e+06 -0)
(142748 -1.22243e+06 -0)
(139792 -1.2167e+06 -0)
(136860 -1.21108e+06 -0)
(133953 -1.20558e+06 -0)
(131069 -1.20018e+06 -0)
(128209 -1.1949e+06 -0)
(125371 -1.18974e+06 -0)
(122554 -1.18468e+06 -0)
(119759 -1.17973e+06 -0)
(116985 -1.17489e+06 -0)
(114231 -1.17017e+06 -0)
(111497 -1.16555e+06 -0)
(108781 -1.16103e+06 -0)
(106085 -1.15663e+06 -0)
(103406 -1.15233e+06 -0)
(100745 -1.14814e+06 -0)
(98100.4 -1.14406e+06 -0)
(95472.7 -1.14008e+06 -0)
(92861 -1.13621e+06 -0)
(90264.8 -1.13244e+06 -0)
(87683.7 -1.12877e+06 -0)
(85117.2 -1.12521e+06 -0)
(82564.8 -1.12176e+06 -0)
(80026.1 -1.1184e+06 -0)
(77500.6 -1.11515e+06 -0)
(74987.9 -1.112e+06 -0)
(72487.5 -1.10895e+06 -0)
(69998.9 -1.10601e+06 -0)
(67521.7 -1.10316e+06 -0)
(65055.6 -1.10042e+06 -0)
(62600 -1.09778e+06 -0)
(60154.6 -1.09524e+06 -0)
(57719 -1.09279e+06 -0)
(55292.7 -1.09045e+06 -0)
(52875.2 -1.08821e+06 -0)
(50466.2 -1.08607e+06 -0)
(48065.3 -1.08402e+06 -0)
(45672.1 -1.08208e+06 -0)
(43286.1 -1.08023e+06 -0)
(40907 -1.07848e+06 -0)
(38534.5 -1.07683e+06 -0)
(36168 -1.07528e+06 -0)
(33807.1 -1.07382e+06 -0)
(31451.5 -1.07247e+06 -0)
(29100.6 -1.07121e+06 -0)
(26754 -1.07004e+06 -0)
(24411.1 -1.06898e+06 -0)
(22071.7 -1.06801e+06 -0)
(19735.3 -1.06714e+06 -0)
(17402 -1.06637e+06 -0)
(15072 -1.06569e+06 -0)
(12745.5 -1.06511e+06 -0)
(10422.4 -1.06463e+06 -0)
(8100.7 -1.06424e+06 -0)
(5769.86 -1.06395e+06 -0)
(3424.44 -1.06374e+06 -0)
(1124.45 -1.06362e+06 -0)
(316189 -1.58371e+06 -0)
(311215 -1.57233e+06 -0)
(306285 -1.56109e+06 -0)
(301438 -1.55e+06 -0)
(296652 -1.53905e+06 -0)
(291928 -1.52824e+06 -0)
(287267 -1.5176e+06 -0)
(282667 -1.5071e+06 -0)
(278126 -1.49675e+06 -0)
(273644 -1.48655e+06 -0)
(269218 -1.4765e+06 -0)
(264849 -1.46659e+06 -0)
(260535 -1.45682e+06 -0)
(256275 -1.4472e+06 -0)
(252069 -1.43772e+06 -0)
(247914 -1.42837e+06 -0)
(243810 -1.41917e+06 -0)
(239756 -1.4101e+06 -0)
(235749 -1.40118e+06 -0)
(231791 -1.39238e+06 -0)
(227878 -1.38372e+06 -0)
(224011 -1.3752e+06 -0)
(220188 -1.3668e+06 -0)
(216408 -1.35854e+06 -0)
(212671 -1.35041e+06 -0)
(208975 -1.3424e+06 -0)
(205319 -1.33453e+06 -0)
(201703 -1.32678e+06 -0)
(198125 -1.31916e+06 -0)
(194585 -1.31167e+06 -0)
(191082 -1.3043e+06 -0)
(187615 -1.29705e+06 -0)
(184183 -1.28993e+06 -0)
(180785 -1.28293e+06 -0)
(177421 -1.27605e+06 -0)
(174089 -1.26929e+06 -0)
(170790 -1.26266e+06 -0)
(167521 -1.25614e+06 -0)
(164283 -1.24973e+06 -0)
(161075 -1.24345e+06 -0)
(157896 -1.23728e+06 -0)
(154745 -1.23123e+06 -0)
(151621 -1.2253e+06 -0)
(148525 -1.21948e+06 -0)
(145454 -1.21377e+06 -0)
(142409 -1.20818e+06 -0)
(139389 -1.2027e+06 -0)
(136394 -1.19733e+06 -0)
(133422 -1.19207e+06 -0)
(130473 -1.18693e+06 -0)
(127546 -1.18189e+06 -0)
(124641 -1.17697e+06 -0)
(121758 -1.17215e+06 -0)
(118895 -1.16744e+06 -0)
(116053 -1.16284e+06 -0)
(113230 -1.15835e+06 -0)
(110426 -1.15396e+06 -0)
(107641 -1.14968e+06 -0)
(104873 -1.14551e+06 -0)
(102124 -1.14144e+06 -0)
(99390.8 -1.13748e+06 -0)
(96674.4 -1.13362e+06 -0)
(93973.9 -1.12987e+06 -0)
(91289 -1.12622e+06 -0)
(88619.1 -1.12267e+06 -0)
(85963.7 -1.11923e+06 -0)
(83322.3 -1.11589e+06 -0)
(80694.5 -1.11265e+06 -0)
(78079.9 -1.10952e+06 -0)
(75477.8 -1.10648e+06 -0)
(72888 -1.10355e+06 -0)
(70310 -1.10071e+06 -0)
(67743.2 -1.09798e+06 -0)
(65187.4 -1.09535e+06 -0)
(62642 -1.09282e+06 -0)
(60106.6 -1.09039e+06 -0)
(57580.8 -1.08805e+06 -0)
(55064.1 -1.08582e+06 -0)
(52556.2 -1.08368e+06 -0)
(50056.5 -1.08165e+06 -0)
(47564.7 -1.07971e+06 -0)
(45080.4 -1.07787e+06 -0)
(42603.3 -1.07613e+06 -0)
(40132.8 -1.07448e+06 -0)
(37668.6 -1.07294e+06 -0)
(35210.2 -1.07149e+06 -0)
(32757.2 -1.07014e+06 -0)
(30309.2 -1.06888e+06 -0)
(27865.5 -1.06772e+06 -0)
(25425.7 -1.06666e+06 -0)
(22989.3 -1.0657e+06 -0)
(20555.9 -1.06483e+06 -0)
(18125.4 -1.06406e+06 -0)
(15698.6 -1.06339e+06 -0)
(13275.8 -1.06281e+06 -0)
(10856 -1.06233e+06 -0)
(8437.43 -1.06195e+06 -0)
(6014.61 -1.06166e+06 -0)
(3582.97 -1.06146e+06 -0)
(1182.53 -1.06135e+06 -0)
(327666 -1.57881e+06 -0)
(322529 -1.56741e+06 -0)
(317425 -1.55621e+06 -0)
(312428 -1.54517e+06 -0)
(307494 -1.53429e+06 -0)
(302621 -1.52355e+06 -0)
(297809 -1.51297e+06 -0)
(293059 -1.50253e+06 -0)
(288371 -1.49224e+06 -0)
(283742 -1.4821e+06 -0)
(279171 -1.47211e+06 -0)
(274658 -1.46226e+06 -0)
(270202 -1.45255e+06 -0)
(265802 -1.44298e+06 -0)
(261455 -1.43355e+06 -0)
(257162 -1.42426e+06 -0)
(252920 -1.4151e+06 -0)
(248729 -1.40609e+06 -0)
(244587 -1.39721e+06 -0)
(240494 -1.38846e+06 -0)
(236448 -1.37985e+06 -0)
(232449 -1.37137e+06 -0)
(228494 -1.36302e+06 -0)
(224584 -1.3548e+06 -0)
(220717 -1.34671e+06 -0)
(216893 -1.33874e+06 -0)
(213110 -1.33091e+06 -0)
(209367 -1.3232e+06 -0)
(205663 -1.31562e+06 -0)
(201999 -1.30816e+06 -0)
(198371 -1.30083e+06 -0)
(194781 -1.29362e+06 -0)
(191227 -1.28653e+06 -0)
(187708 -1.27957e+06 -0)
(184223 -1.27272e+06 -0)
(180772 -1.266e+06 -0)
(177353 -1.25939e+06 -0)
(173966 -1.2529e+06 -0)
(170611 -1.24653e+06 -0)
(167286 -1.24028e+06 -0)
(163990 -1.23414e+06 -0)
(160724 -1.22812e+06 -0)
(157486 -1.22221e+06 -0)
(154275 -1.21642e+06 -0)
(151091 -1.21074e+06 -0)
(147934 -1.20517e+06 -0)
(144802 -1.19971e+06 -0)
(141694 -1.19437e+06 -0)
(138611 -1.18914e+06 -0)
(135552 -1.18401e+06 -0)
(132516 -1.179e+06 -0)
(129502 -1.17409e+06 -0)
(126510 -1.1693e+06 -0)
(123539 -1.16461e+06 -0)
(120589 -1.16003e+06 -0)
(117660 -1.15556e+06 -0)
(114749 -1.15119e+06 -0)
(111858 -1.14693e+06 -0)
(108985 -1.14278e+06 -0)
(106130 -1.13873e+06 -0)
(103292 -1.13478e+06 -0)
(100472 -1.13094e+06 -0)
(97667.6 -1.1272e+06 -0)
(94879.3 -1.12357e+06 -0)
(92106.4 -1.12004e+06 -0)
(89348.5 -1.11661e+06 -0)
(86604.9 -1.11328e+06 -0)
(83875.3 -1.11006e+06 -0)
(81159.2 -1.10693e+06 -0)
(78456.1 -1.10391e+06 -0)
(75765.5 -1.10099e+06 -0)
(73086.9 -1.09817e+06 -0)
(70420 -1.09545e+06 -0)
(67764.3 -1.09283e+06 -0)
(65119.3 -1.0903e+06 -0)
(62484.6 -1.08788e+06 -0)
(59859.8 -1.08556e+06 -0)
(57244.3 -1.08333e+06 -0)
(54637.8 -1.08121e+06 -0)
(52039.8 -1.07918e+06 -0)
(49449.9 -1.07725e+06 -0)
(46867.7 -1.07542e+06 -0)
(44292.8 -1.07368e+06 -0)
(41724.8 -1.07204e+06 -0)
(39163.3 -1.0705e+06 -0)
(36607.8 -1.06906e+06 -0)
(34057.9 -1.06771e+06 -0)
(31513.1 -1.06646e+06 -0)
(28972.9 -1.06531e+06 -0)
(26436.8 -1.06425e+06 -0)
(23904 -1.06329e+06 -0)
(21374 -1.06243e+06 -0)
(18846.2 -1.06166e+06 -0)
(16321.5 -1.06099e+06 -0)
(13801.5 -1.06041e+06 -0)
(11286 -1.05993e+06 -0)
(8770.59 -1.05955e+06 -0)
(6252.8 -1.05927e+06 -0)
(3731.57 -1.05908e+06 -0)
(1234.9 -1.05898e+06 -0)
(339023 -1.57366e+06 -0)
(333813 -1.56234e+06 -0)
(328523 -1.55119e+06 -0)
(323359 -1.54021e+06 -0)
(318272 -1.52939e+06 -0)
(313248 -1.51872e+06 -0)
(308288 -1.5082e+06 -0)
(303390 -1.49783e+06 -0)
(298554 -1.4876e+06 -0)
(293780 -1.47752e+06 -0)
(289066 -1.46759e+06 -0)
(284411 -1.45779e+06 -0)
(279814 -1.44814e+06 -0)
(275274 -1.43863e+06 -0)
(270789 -1.42925e+06 -0)
(266358 -1.42001e+06 -0)
(261980 -1.41091e+06 -0)
(257653 -1.40195e+06 -0)
(253377 -1.39311e+06 -0)
(249151 -1.38442e+06 -0)
(244972 -1.37585e+06 -0)
(240841 -1.36741e+06 -0)
(236757 -1.35911e+06 -0)
(232717 -1.35093e+06 -0)
(228722 -1.34289e+06 -0)
(224770 -1.33497e+06 -0)
(220860 -1.32718e+06 -0)
(216992 -1.31951e+06 -0)
(213163 -1.31197e+06 -0)
(209375 -1.30455e+06 -0)
(205624 -1.29725e+06 -0)
(201912 -1.29008e+06 -0)
(198236 -1.28303e+06 -0)
(194596 -1.2761e+06 -0)
(190992 -1.26929e+06 -0)
(187421 -1.26259e+06 -0)
(183884 -1.25602e+06 -0)
(180380 -1.24956e+06 -0)
(176908 -1.24322e+06 -0)
(173467 -1.237e+06 -0)
(170056 -1.23089e+06 -0)
(166675 -1.2249e+06 -0)
(163323 -1.21902e+06 -0)
(159999 -1.21325e+06 -0)
(156702 -1.2076e+06 -0)
(153433 -1.20206e+06 -0)
(150189 -1.19663e+06 -0)
(146971 -1.19131e+06 -0)
(143778 -1.1861e+06 -0)
(140609 -1.181e+06 -0)
(137464 -1.17601e+06 -0)
(134341 -1.17113e+06 -0)
(131241 -1.16635e+06 -0)
(128163 -1.16169e+06 -0)
(125106 -1.15713e+06 -0)
(122070 -1.15267e+06 -0)
(119053 -1.14833e+06 -0)
(116056 -1.14409e+06 -0)
(113078 -1.13995e+06 -0)
(110119 -1.13592e+06 -0)
(107177 -1.13199e+06 -0)
(104253 -1.12816e+06 -0)
(101346 -1.12444e+06 -0)
(98454.3 -1.12082e+06 -0)
(95579 -1.11731e+06 -0)
(92718.9 -1.11389e+06 -0)
(89873.7 -1.11058e+06 -0)
(87042.7 -1.10737e+06 -0)
(84225.6 -1.10426e+06 -0)
(81421.8 -1.10125e+06 -0)
(78630.9 -1.09834e+06 -0)
(75852.3 -1.09553e+06 -0)
(73085.7 -1.09282e+06 -0)
(70330.5 -1.09021e+06 -0)
(67586.4 -1.0877e+06 -0)
(64852.8 -1.08529e+06 -0)
(62129.4 -1.08298e+06 -0)
(59415.6 -1.08076e+06 -0)
(56711 -1.07864e+06 -0)
(54015 -1.07662e+06 -0)
(51327.4 -1.0747e+06 -0)
(48647.7 -1.07288e+06 -0)
(45975.5 -1.07115e+06 -0)
(43310.4 -1.06952e+06 -0)
(40652 -1.06798e+06 -0)
(37999.8 -1.06655e+06 -0)
(35353.3 -1.0652e+06 -0)
(32712.2 -1.06396e+06 -0)
(30075.8 -1.06281e+06 -0)
(27443.9 -1.06176e+06 -0)
(24815.7 -1.0608e+06 -0)
(22190.4 -1.05994e+06 -0)
(19566.9 -1.05917e+06 -0)
(16945 -1.0585e+06 -0)
(14326.7 -1.05793e+06 -0)
(11714.2 -1.05745e+06 -0)
(9103.19 -1.05707e+06 -0)
(6490.21 -1.05678e+06 -0)
(3876.38 -1.05659e+06 -0)
(1284.55 -1.05649e+06 -0)
(350324 -1.56826e+06 -0)
(344999 -1.55707e+06 -0)
(339556 -1.546e+06 -0)
(334229 -1.53509e+06 -0)
(328984 -1.52434e+06 -0)
(323809 -1.51373e+06 -0)
(318701 -1.50328e+06 -0)
(313657 -1.49297e+06 -0)
(308676 -1.48281e+06 -0)
(303758 -1.47279e+06 -0)
(298902 -1.46292e+06 -0)
(294106 -1.45318e+06 -0)
(289370 -1.44359e+06 -0)
(284691 -1.43413e+06 -0)
(280068 -1.42481e+06 -0)
(275501 -1.41563e+06 -0)
(270988 -1.40658e+06 -0)
(266527 -1.39766e+06 -0)
(262117 -1.38888e+06 -0)
(257759 -1.38023e+06 -0)
(253449 -1.37171e+06 -0)
(249188 -1.36333e+06 -0)
(244974 -1.35507e+06 -0)
(240806 -1.34694e+06 -0)
(236683 -1.33894e+06 -0)
(232605 -1.33106e+06 -0)
(228570 -1.32331e+06 -0)
(224576 -1.31568e+06 -0)
(220624 -1.30818e+06 -0)
(216712 -1.3008e+06 -0)
(212840 -1.29355e+06 -0)
(209006 -1.28641e+06 -0)
(205210 -1.27939e+06 -0)
(201450 -1.2725e+06 -0)
(197726 -1.26572e+06 -0)
(194038 -1.25906e+06 -0)
(190383 -1.25252e+06 -0)
(186762 -1.2461e+06 -0)
(183174 -1.23979e+06 -0)
(179618 -1.2336e+06 -0)
(176092 -1.22752e+06 -0)
(172597 -1.22156e+06 -0)
(169132 -1.21571e+06 -0)
(165695 -1.20997e+06 -0)
(162286 -1.20434e+06 -0)
(158905 -1.19883e+06 -0)
(155551 -1.19342e+06 -0)
(152223 -1.18813e+06 -0)
(148920 -1.18295e+06 -0)
(145642 -1.17787e+06 -0)
(142388 -1.1729e+06 -0)
(139158 -1.16804e+06 -0)
(135950 -1.16329e+06 -0)
(132765 -1.15865e+06 -0)
(129602 -1.15411e+06 -0)
(126460 -1.14968e+06 -0)
(123338 -1.14535e+06 -0)
(120236 -1.14113e+06 -0)
(117154 -1.13701e+06 -0)
(114090 -1.133e+06 -0)
(111045 -1.12909e+06 -0)
(108017 -1.12528e+06 -0)
(105007 -1.12157e+06 -0)
(102014 -1.11797e+06 -0)
(99036.3 -1.11447e+06 -0)
(96074.7 -1.11107e+06 -0)
(93128.2 -1.10777e+06 -0)
(90196.4 -1.10458e+06 -0)
(87278.7 -1.10148e+06 -0)
(84374.8 -1.09849e+06 -0)
(81483.9 -1.09559e+06 -0)
(78605.8 -1.09279e+06 -0)
(75739.9 -1.09009e+06 -0)
(72885.8 -1.08749e+06 -0)
(70043 -1.08499e+06 -0)
(67211 -1.08259e+06 -0)
(64389.4 -1.08029e+06 -0)
(61577.7 -1.07808e+06 -0)
(58775.3 -1.07597e+06 -0)
(55981.9 -1.07396e+06 -0)
(53197.1 -1.07205e+06 -0)
(50420.3 -1.07023e+06 -0)
(47651.2 -1.06851e+06 -0)
(44889.4 -1.06689e+06 -0)
(42134.5 -1.06536e+06 -0)
(39386 -1.06393e+06 -0)
(36643.4 -1.06259e+06 -0)
(33906.2 -1.06135e+06 -0)
(31174 -1.06021e+06 -0)
(28446.3 -1.05916e+06 -0)
(25722.8 -1.05821e+06 -0)
(23002.7 -1.05735e+06 -0)
(20285.1 -1.05659e+06 -0)
(17568.5 -1.05592e+06 -0)
(14853.4 -1.05535e+06 -0)
(12143.5 -1.05487e+06 -0)
(9436.74 -1.05449e+06 -0)
(6729.12 -1.0542e+06 -0)
(4021.48 -1.05401e+06 -0)
(1333.84 -1.05391e+06 -0)
(361592 -1.5627e+06 -0)
(356074 -1.5516e+06 -0)
(350500 -1.54063e+06 -0)
(345026 -1.5298e+06 -0)
(339629 -1.51911e+06 -0)
(334303 -1.50858e+06 -0)
(329047 -1.4982e+06 -0)
(323858 -1.48796e+06 -0)
(318734 -1.47786e+06 -0)
(313674 -1.46791e+06 -0)
(308677 -1.45809e+06 -0)
(303742 -1.44842e+06 -0)
(298867 -1.43888e+06 -0)
(294051 -1.42948e+06 -0)
(289293 -1.42022e+06 -0)
(284590 -1.41109e+06 -0)
(279943 -1.40209e+06 -0)
(275349 -1.39323e+06 -0)
(270807 -1.3845e+06 -0)
(266317 -1.3759e+06 -0)
(261878 -1.36743e+06 -0)
(257487 -1.35909e+06 -0)
(253145 -1.35088e+06 -0)
(248850 -1.3428e+06 -0)
(244601 -1.33484e+06 -0)
(240397 -1.32701e+06 -0)
(236237 -1.3193e+06 -0)
(232120 -1.31172e+06 -0)
(228045 -1.30426e+06 -0)
(224011 -1.29692e+06 -0)
(220017 -1.2897e+06 -0)
(216062 -1.2826e+06 -0)
(212146 -1.27562e+06 -0)
(208268 -1.26877e+06 -0)
(204426 -1.26203e+06 -0)
(200620 -1.2554e+06 -0)
(196849 -1.2489e+06 -0)
(193112 -1.24251e+06 -0)
(189409 -1.23623e+06 -0)
(185738 -1.23007e+06 -0)
(182098 -1.22402e+06 -0)
(178490 -1.21809e+06 -0)
(174912 -1.21227e+06 -0)
(171363 -1.20656e+06 -0)
(167843 -1.20096e+06 -0)
(164351 -1.19547e+06 -0)
(160887 -1.19009e+06 -0)
(157449 -1.18483e+06 -0)
(154038 -1.17967e+06 -0)
(150651 -1.17462e+06 -0)
(147289 -1.16967e+06 -0)
(143952 -1.16484e+06 -0)
(140638 -1.16011e+06 -0)
(137346 -1.15549e+06 -0)
(134077 -1.15097e+06 -0)
(130829 -1.14656e+06 -0)
(127603 -1.14225e+06 -0)
(124396 -1.13805e+06 -0)
(121210 -1.13395e+06 -0)
(118043 -1.12996e+06 -0)
(114895 -1.12606e+06 -0)
(111765 -1.12227e+06 -0)
(108652 -1.11859e+06 -0)
(105557 -1.115e+06 -0)
(102478 -1.11152e+06 -0)
(99415.3 -1.10813e+06 -0)
(96368.1 -1.10485e+06 -0)
(93335.9 -1.10167e+06 -0)
(90318.3 -1.09859e+06 -0)
(87314.6 -1.0956e+06 -0)
(84324.3 -1.09272e+06 -0)
(81347.1 -1.08994e+06 -0)
(78382.4 -1.08725e+06 -0)
(75429.8 -1.08466e+06 -0)
(72488.8 -1.08217e+06 -0)
(69558.8 -1.07978e+06 -0)
(66639.5 -1.07749e+06 -0)
(63730.3 -1.07529e+06 -0)
(60830.7 -1.07319e+06 -0)
(57940.3 -1.07119e+06 -0)
(55058.6 -1.06928e+06 -0)
(52185.2 -1.06748e+06 -0)
(49319.7 -1.06576e+06 -0)
(46461.6 -1.06415e+06 -0)
(43610.6 -1.06263e+06 -0)
(40766.2 -1.0612e+06 -0)
(37927.9 -1.05987e+06 -0)
(35095.2 -1.05864e+06 -0)
(32267.6 -1.0575e+06 -0)
(29444.6 -1.05645e+06 -0)
(26625.8 -1.05551e+06 -0)
(23810.9 -1.05465e+06 -0)
(20999.2 -1.05389e+06 -0)
(18189.3 -1.05323e+06 -0)
(15379.8 -1.05266e+06 -0)
(12573.8 -1.05218e+06 -0)
(9771.39 -1.0518e+06 -0)
(6969.41 -1.05151e+06 -0)
(4167.8 -1.05131e+06 -0)
(1383.57 -1.05121e+06 -0)
(372790 -1.55702e+06 -0)
(367073 -1.54597e+06 -0)
(361358 -1.53508e+06 -0)
(355742 -1.52433e+06 -0)
(350199 -1.51373e+06 -0)
(344727 -1.50327e+06 -0)
(339326 -1.49295e+06 -0)
(333993 -1.48278e+06 -0)
(328727 -1.47275e+06 -0)
(323527 -1.46286e+06 -0)
(318392 -1.4531e+06 -0)
(313318 -1.44349e+06 -0)
(308307 -1.43401e+06 -0)
(303355 -1.42467e+06 -0)
(298461 -1.41547e+06 -0)
(293625 -1.40639e+06 -0)
(288844 -1.39745e+06 -0)
(284118 -1.38865e+06 -0)
(279446 -1.37997e+06 -0)
(274826 -1.37142e+06 -0)
(270257 -1.363e+06 -0)
(265739 -1.35471e+06 -0)
(261269 -1.34655e+06 -0)
(256848 -1.33851e+06 -0)
(252473 -1.3306e+06 -0)
(248145 -1.32281e+06 -0)
(243861 -1.31515e+06 -0)
(239621 -1.30761e+06 -0)
(235424 -1.30019e+06 -0)
(231269 -1.29289e+06 -0)
(227155 -1.28571e+06 -0)
(223081 -1.27866e+06 -0)
(219046 -1.27172e+06 -0)
(215049 -1.2649e+06 -0)
(211090 -1.25819e+06 -0)
(207168 -1.2516e+06 -0)
(203281 -1.24513e+06 -0)
(199429 -1.23877e+06 -0)
(195611 -1.23253e+06 -0)
(191826 -1.2264e+06 -0)
(188073 -1.22039e+06 -0)
(184352 -1.21449e+06 -0)
(180662 -1.20869e+06 -0)
(177003 -1.20301e+06 -0)
(173372 -1.19744e+06 -0)
(169770 -1.19199e+06 -0)
(166196 -1.18663e+06 -0)
(162650 -1.18139e+06 -0)
(159130 -1.17626e+06 -0)
(155635 -1.17124e+06 -0)
(152167 -1.16632e+06 -0)
(148722 -1.16151e+06 -0)
(145302 -1.1568e+06 -0)
(141905 -1.1522e+06 -0)
(138530 -1.14771e+06 -0)
(135178 -1.14332e+06 -0)
(131847 -1.13903e+06 -0)
(128537 -1.13485e+06 -0)
(125247 -1.13077e+06 -0)
(121977 -1.12679e+06 -0)
(118727 -1.12292e+06 -0)
(115494 -1.11915e+06 -0)
(112280 -1.11548e+06 -0)
(109083 -1.11191e+06 -0)
(105904 -1.10844e+06 -0)
(102740 -1.10507e+06 -0)
(99593.1 -1.10181e+06 -0)
(96461 -1.09864e+06 -0)
(93343.8 -1.09557e+06 -0)
(90240.9 -1.0926e+06 -0)
(87151.8 -1.08973e+06 -0)
(84076 -1.08696e+06 -0)
(81012.9 -1.08429e+06 -0)
(77962.3 -1.08171e+06 -0)
(74923.5 -1.07923e+06 -0)
(71896 -1.07685e+06 -0)
(68879.5 -1.07457e+06 -0)
(65873.3 -1.07238e+06 -0)
(62876.9 -1.0703e+06 -0)
(59889.9 -1.0683e+06 -0)
(56911.8 -1.0664e+06 -0)
(53942.3 -1.0646e+06 -0)
(50980.7 -1.0629e+06 -0)
(48026.8 -1.06129e+06 -0)
(45080.2 -1.05978e+06 -0)
(42140.3 -1.05836e+06 -0)
(39206.7 -1.05703e+06 -0)
(36278.9 -1.05581e+06 -0)
(33356.5 -1.05467e+06 -0)
(30438.7 -1.05363e+06 -0)
(27525.2 -1.05269e+06 -0)
(24615.5 -1.05184e+06 -0)
(21709.5 -1.05108e+06 -0)
(18806.3 -1.05042e+06 -0)
(15903.9 -1.04985e+06 -0)
(13003.4 -1.04938e+06 -0)
(10106.1 -1.049e+06 -0)
(7210.07 -1.04871e+06 -0)
(4314.71 -1.04851e+06 -0)
(1433.61 -1.04842e+06 -0)
(383873 -1.55118e+06 -0)
(378016 -1.5402e+06 -0)
(372143 -1.52937e+06 -0)
(366379 -1.5187e+06 -0)
(360693 -1.50817e+06 -0)
(355079 -1.49779e+06 -0)
(349535 -1.48754e+06 -0)
(344061 -1.47744e+06 -0)
(338655 -1.46748e+06 -0)
(333317 -1.45765e+06 -0)
(328043 -1.44796e+06 -0)
(322834 -1.43841e+06 -0)
(317686 -1.42899e+06 -0)
(312600 -1.41971e+06 -0)
(307572 -1.41056e+06 -0)
(302603 -1.40155e+06 -0)
(297690 -1.39266e+06 -0)
(292834 -1.38391e+06 -0)
(288031 -1.37529e+06 -0)
(283283 -1.36679e+06 -0)
(278586 -1.35843e+06 -0)
(273941 -1.35019e+06 -0)
(269345 -1.34207e+06 -0)
(264799 -1.33408e+06 -0)
(260300 -1.32622e+06 -0)
(255848 -1.31848e+06 -0)
(251441 -1.31086e+06 -0)
(247080 -1.30336e+06 -0)
(242761 -1.29598e+06 -0)
(238486 -1.28873e+06 -0)
(234252 -1.28159e+06 -0)
(230060 -1.27457e+06 -0)
(225907 -1.26767e+06 -0)
(221793 -1.26089e+06 -0)
(217718 -1.25422e+06 -0)
(213679 -1.24767e+06 -0)
(209678 -1.24123e+06 -0)
(205711 -1.23491e+06 -0)
(201779 -1.2287e+06 -0)
(197882 -1.22261e+06 -0)
(194017 -1.21663e+06 -0)
(190184 -1.21075e+06 -0)
(186383 -1.20499e+06 -0)
(182613 -1.19934e+06 -0)
(178872 -1.1938e+06 -0)
(175161 -1.18837e+06 -0)
(171479 -1.18305e+06 -0)
(167824 -1.17784e+06 -0)
(164196 -1.17273e+06 -0)
(160595 -1.16773e+06 -0)
(157019 -1.16284e+06 -0)
(153469 -1.15805e+06 -0)
(149943 -1.15337e+06 -0)
(146441 -1.14879e+06 -0)
(142962 -1.14432e+06 -0)
(139505 -1.13995e+06 -0)
(136071 -1.13569e+06 -0)
(132657 -1.13153e+06 -0)
(129265 -1.12747e+06 -0)
(125893 -1.12351e+06 -0)
(122540 -1.11966e+06 -0)
(119206 -1.1159e+06 -0)
(115891 -1.11225e+06 -0)
(112593 -1.1087e+06 -0)
(109313 -1.10525e+06 -0)
(106050 -1.1019e+06 -0)
(102803 -1.09865e+06 -0)
(99571.3 -1.09549e+06 -0)
(96355.1 -1.09244e+06 -0)
(93153.4 -1.08949e+06 -0)
(89965.9 -1.08663e+06 -0)
(86792 -1.08387e+06 -0)
(83631.2 -1.08121e+06 -0)
(80482.9 -1.07865e+06 -0)
(77346.8 -1.07618e+06 -0)
(74222.4 -1.07381e+06 -0)
(71109.1 -1.07154e+06 -0)
(68006.3 -1.06936e+06 -0)
(64913.6 -1.06728e+06 -0)
(61830.6 -1.0653e+06 -0)
(58756.6 -1.06341e+06 -0)
(55691.3 -1.06162e+06 -0)
(52634.2 -1.05992e+06 -0)
(49584.9 -1.05832e+06 -0)
(46543 -1.05681e+06 -0)
(43508 -1.0554e+06 -0)
(40479.5 -1.05408e+06 -0)
(37457 -1.05286e+06 -0)
(34440 -1.05173e+06 -0)
(31428.1 -1.0507e+06 -0)
(28420.4 -1.04976e+06 -0)
(25416.5 -1.04891e+06 -0)
(22416.3 -1.04816e+06 -0)
(19419.6 -1.0475e+06 -0)
(16424.4 -1.04694e+06 -0)
(13430.8 -1.04647e+06 -0)
(10439.6 -1.04609e+06 -0)
(7449.98 -1.0458e+06 -0)
(4461.26 -1.04561e+06 -0)
(1483.54 -1.04551e+06 -0)
(394852 -1.54515e+06 -0)
(388882 -1.53428e+06 -0)
(382859 -1.52352e+06 -0)
(376942 -1.51292e+06 -0)
(371113 -1.50247e+06 -0)
(365358 -1.49216e+06 -0)
(359674 -1.48198e+06 -0)
(354061 -1.47195e+06 -0)
(348517 -1.46205e+06 -0)
(343041 -1.45229e+06 -0)
(337632 -1.44267e+06 -0)
(332287 -1.43318e+06 -0)
(327005 -1.42383e+06 -0)
(321785 -1.41461e+06 -0)
(316625 -1.40552e+06 -0)
(311524 -1.39656e+06 -0)
(306481 -1.38773e+06 -0)
(301495 -1.37904e+06 -0)
(296564 -1.37047e+06 -0)
(291688 -1.36203e+06 -0)
(286864 -1.35371e+06 -0)
(282093 -1.34552e+06 -0)
(277373 -1.33746e+06 -0)
(272702 -1.32952e+06 -0)
(268080 -1.3217e+06 -0)
(263505 -1.314e+06 -0)
(258977 -1.30643e+06 -0)
(254494 -1.29898e+06 -0)
(250056 -1.29165e+06 -0)
(245662 -1.28443e+06 -0)
(241310 -1.27734e+06 -0)
(236999 -1.27036e+06 -0)
(232729 -1.2635e+06 -0)
(228499 -1.25675e+06 -0)
(224308 -1.25013e+06 -0)
(220155 -1.24361e+06 -0)
(216039 -1.23721e+06 -0)
(211959 -1.23092e+06 -0)
(207915 -1.22475e+06 -0)
(203904 -1.21869e+06 -0)
(199928 -1.21274e+06 -0)
(195984 -1.2069e+06 -0)
(192073 -1.20117e+06 -0)
(188193 -1.19555e+06 -0)
(184343 -1.19004e+06 -0)
(180524 -1.18464e+06 -0)
(176733 -1.17934e+06 -0)
(172971 -1.17416e+06 -0)
(169236 -1.16908e+06 -0)
(165528 -1.16411e+06 -0)
(161847 -1.15924e+06 -0)
(158191 -1.15448e+06 -0)
(154560 -1.14982e+06 -0)
(150953 -1.14527e+06 -0)
(147370 -1.14082e+06 -0)
(143810 -1.13647e+06 -0)
(140273 -1.13223e+06 -0)
(136757 -1.12809e+06 -0)
(133262 -1.12405e+06 -0)
(129788 -1.12011e+06 -0)
(126334 -1.11628e+06 -0)
(122899 -1.11255e+06 -0)
(119483 -1.10891e+06 -0)
(116086 -1.10538e+06 -0)