/*--------------------------------*- C++ -*----------------------------------*\
| =========                 |                                                 |
| \\      /  F ield         | OpenFOAM: The Open Source CFD Toolbox           |
|  \\    /   O peration     | Version:  2406                                  |
|   \\  /    A nd           | Website:  www.openfoam.com                      |
|    \\/     M anipulation  |                                                 |
\*---------------------------------------------------------------------------*/
FoamFile
{
    version     2.0;
    format      ascii;
    arch        "LSB;label=32;scalar=64";
    class       volScalarField;
    location    "5e-05";
    object      voltExt;
}
// * * * * * * * * * * * * * * * * * * * * * * * * * * * * * * * * * * * * * //

dimensions      [1 2 -3 0 0 -1 0];

internalField   nonuniform List<scalar> 
61540
(
9.465727018e-12
1.547508229e-11
2.774098531e-11
4.626691836e-11
6.828515459e-11
9.047331142e-11
1.10920592e-10
1.288112033e-10
1.438536552e-10
1.560317611e-10
1.663792552e-10
1.774178766e-10
1.914910625e-10
2.119293492e-10
9.6142219e-12
1.56963905e-11
2.806984502e-11
4.668450177e-11
6.875343466e-11
9.099345873e-11
1.115314006e-10
1.295686263e-10
1.448186862e-10
1.572636491e-10
1.679516882e-10
1.795290032e-10
1.946280812e-10
2.165335924e-10
9.762249682e-12
1.591615357e-11
2.839407181e-11
4.70916457e-11
6.920194793e-11
9.147720361e-11
1.120751579e-10
1.302055228e-10
1.455767467e-10
1.581596056e-10
1.689973865e-10
1.80759695e-10
1.960634761e-10
2.178097096e-10
9.909804879e-12
1.613436092e-11
2.871365898e-11
4.748836239e-11
6.963067066e-11
9.192431794e-11
1.125510828e-10
1.307198328e-10
1.461230597e-10
1.587103885e-10
1.695032726e-10
1.811050155e-10
1.958882626e-10
2.163559364e-10
2.004299474e-10
1.675677408e-10
1.438281455e-10
1.242411019e-10
1.071469704e-10
9.18152009e-11
7.792573123e-11
6.539914513e-11
5.430688221e-11
2.082077019e-10
1.736488193e-10
1.485193437e-10
1.283169003e-10
1.110425677e-10
9.57751729e-11
8.209112879e-11
6.983229425e-11
5.898850814e-11
2.105081515e-10
1.767463759e-10
1.516515936e-10
1.314662305e-10
1.143031583e-10
9.923414562e-11
8.580558894e-11
7.381772954e-11
6.320827523e-11
2.085348418e-10
1.771016459e-10
1.532304658e-10
1.336592865e-10
1.16901188e-10
1.021740716e-10
8.906419491e-11
7.736702373e-11
6.699450254e-11
4.466711021e-11
3.661277669e-11
3.014279008e-11
2.502904994e-11
2.101076648e-11
1.784864793e-11
1.534516716e-11
1.334578622e-11
1.173275772e-11
1.04173832e-11
9.333033682e-12
8.429554897e-12
7.669008799e-12
7.022516061e-12
6.467941293e-12
5.988183862e-12
5.56991361e-12
5.202656611e-12
4.878131434e-12
4.589738569e-12
4.332164909e-12
4.101104107e-12
3.893062944e-12
3.705199683e-12
3.535182999e-12
3.381097794e-12
3.241395771e-12
3.114855179e-12
3.000535389e-12
2.897749547e-12
2.806073972e-12
2.725379241e-12
2.655862833e-12
2.598095353e-12
2.553110437e-12
2.522550161e-12
2.508858306e-12
2.515519803e-12
2.547352243e-12
2.610818436e-12
2.714211887e-12
2.867340096e-12
3.079999243e-12
3.358407895e-12
4.949773482e-11
4.143522869e-11
3.48113447e-11
2.944605611e-11
2.512754388e-11
2.16522883e-11
1.884444451e-11
1.656069345e-11
1.468793356e-11
1.313838244e-11
1.184435786e-11
1.075372529e-11
9.826256807e-12
9.030795701e-12
8.343068568e-12
7.744025981e-12
7.218614517e-12
6.754873075e-12
6.343238146e-12
5.975992451e-12
5.646854136e-12
5.350695563e-12
5.083330897e-12
4.841319674e-12
4.621805049e-12
4.42242342e-12
4.241256953e-12
4.076774603e-12
3.927765072e-12
3.793307123e-12
3.672788652e-12
3.56593632e-12
3.472830024e-12
3.393931184e-12
3.330166051e-12
3.283061088e-12
3.254898786e-12
3.248882796e-12
3.269318407e-12
3.321768693e-12
3.41303182e-12
3.550630184e-12
3.741369847e-12
3.988651135e-12
5.386403967e-11
4.582251654e-11
3.909918024e-11
3.35463934e-11
2.898923274e-11
2.525405354e-11
2.218518626e-11
1.96512613e-11
1.75453354e-11
1.578209674e-11
1.429416087e-11
1.302852903e-11
1.194356554e-11
1.100649276e-11
1.019137752e-11
9.477590306e-12
8.848650154e-12
8.291328539e-12
7.794927456e-12
7.350720702e-12
6.951557108e-12
6.591571783e-12
6.265937382e-12
5.970641967e-12
5.702331879e-12
5.458229891e-12
5.236072299e-12
5.034022537e-12
4.850595711e-12
4.684640728e-12
4.535363403e-12
4.402339178e-12
4.285506798e-12
4.185189209e-12
4.102175383e-12
4.037837959e-12
3.994243446e-12
3.974249406e-12
3.981599852e-12
4.020972806e-12
4.097831823e-12
4.217846971e-12
4.385640601e-12
4.602812241e-12
5.780452118e-11
4.981105416e-11
4.303291525e-11
3.734554991e-11
3.260228361e-11
2.865426544e-11
2.536409589e-11
2.261235189e-11
2.029908626e-11
1.834254139e-11
1.667670689e-11
1.524866979e-11
1.401614471e-11
1.294531002e-11
1.200903135e-11
1.11854757e-11
1.045702062e-11
9.809367744e-12
9.230832931e-12
8.711813566e-12
8.244400159e-12
7.822063252e-12
7.43937751e-12
7.091799771e-12
6.775524538e-12
6.487395008e-12
6.224814596e-12
5.985644838e-12
5.768136213e-12
5.570919823e-12
5.393021653e-12
5.23385342e-12
5.093193304e-12
4.971207487e-12
4.86852735e-12
4.786340688e-12
4.726456493e-12
4.691348559e-12
4.684190555e-12
4.708831209e-12
4.769576845e-12
4.870616664e-12
5.014979602e-12
5.203104386e-12
3.701482549e-12
4.095109577e-12
4.515496576e-12
4.941613238e-12
5.357490414e-12
5.752759471e-12
6.121612553e-12
6.461447133e-12
6.77171568e-12
7.0530949e-12
7.306935635e-12
7.534919603e-12
7.738854282e-12
7.920553765e-12
8.081770974e-12
8.224160952e-12
8.34926427e-12
8.458503454e-12
8.553186627e-12
8.634513909e-12
8.703584201e-12
8.761402035e-12
8.808885166e-12
8.846872999e-12
8.876135019e-12
8.897378033e-12
8.911251665e-12
8.918352494e-12
8.919227898e-12
8.914380367e-12
8.90427233e-12
8.889330848e-12
8.869951409e-12
8.846500512e-12
8.819317338e-12
8.788715156e-12
8.754983051e-12
8.718388122e-12
8.679177911e-12
8.6375826e-12
8.593816646e-12
8.548079812e-12
8.5005578e-12
8.451422827e-12
8.400834405e-12
8.348940343e-12
8.295877902e-12
8.241774885e-12
8.18675049e-12
8.130915903e-12
8.074374671e-12
8.01722298e-12
7.959549969e-12
7.901438144e-12
7.842963884e-12
7.78419799e-12
7.725206216e-12
7.666049706e-12
7.606785328e-12
7.547465928e-12
7.488140502e-12
7.428854375e-12
7.369649376e-12
7.310564038e-12
7.251633827e-12
7.192891377e-12
7.134366709e-12
7.076087445e-12
7.018078989e-12
6.960364681e-12
6.902965933e-12
6.845902358e-12
6.78919187e-12
6.732850791e-12
6.676893956e-12
6.621334791e-12
6.566185411e-12
6.511456695e-12
6.457158358e-12
6.40329902e-12
6.349886281e-12
6.296926773e-12
6.244426233e-12
6.192389566e-12
6.140820901e-12
6.089723654e-12
6.039100594e-12
5.988953885e-12
5.93928514e-12
5.890095471e-12
5.841385522e-12
5.793155504e-12
5.74540523e-12
5.69813414e-12
5.651341322e-12
5.605025539e-12
5.559185247e-12
5.513818615e-12
5.468923547e-12
5.424497699e-12
5.380538499e-12
5.337043161e-12
5.294008714e-12
5.251432003e-12
5.209309718e-12
5.167638406e-12
5.12641448e-12
5.085634241e-12
5.045293884e-12
5.005389513e-12
4.965917149e-12
4.926872745e-12
4.888252191e-12
4.850051324e-12
4.812265939e-12
4.774891791e-12
4.737924602e-12
4.701360075e-12
4.665193889e-12
4.629421712e-12
4.594039205e-12
4.559042023e-12
4.524425821e-12
4.490186261e-12
4.456319012e-12
4.422819753e-12
4.389684182e-12
4.356908011e-12
4.324486969e-12
4.292416813e-12
4.260693321e-12
4.229312298e-12
4.19826958e-12
4.167561027e-12
4.137182535e-12
4.107130031e-12
4.077399474e-12
4.047986859e-12
4.018888217e-12
3.990099615e-12
3.961617154e-12
3.933436978e-12
3.905555264e-12
3.87796823e-12
3.850672135e-12
3.823663274e-12
3.796937983e-12
3.77049264e-12
3.744323659e-12
3.718427499e-12
3.692800657e-12
3.667439673e-12
3.642341126e-12
3.617501638e-12
3.592917869e-12
3.568586524e-12
3.544504345e-12
3.52066812e-12
3.497074677e-12
3.473720886e-12
3.450603662e-12
3.42771996e-12
3.405066781e-12
3.38264117e-12
3.360440215e-12
3.33846105e-12
3.316700855e-12
3.295156853e-12
3.27382631e-12
3.252706536e-12
3.231794883e-12
3.211088739e-12
3.190585532e-12
3.170282725e-12
3.150177809e-12
3.130268308e-12
3.110551769e-12
3.091025765e-12
3.071687889e-12
3.052535757e-12
3.033567008e-12
3.014779304e-12
2.996170332e-12
2.977737811e-12
2.959479489e-12
2.941393151e-12
2.923476618e-12
2.905727754e-12
2.888144463e-12
2.87072469e-12
2.853466419e-12
2.83636767e-12
2.819426495e-12
2.802640975e-12
2.786009214e-12
2.769529338e-12
2.753199494e-12
2.737017846e-12
2.720982579e-12
2.705091901e-12
2.689344044e-12
2.673737269e-12
2.658269868e-12
2.642940163e-12
2.627746507e-12
2.612687284e-12
2.597760899e-12
2.582965782e-12
2.568300377e-12
2.553763142e-12
2.539352546e-12
2.525067072e-12
2.510905216e-12
2.496865491e-12
2.482946438e-12
2.469146626e-12
2.455464656e-12
2.441899168e-12
2.428448834e-12
2.415112359e-12
2.401888469e-12
2.388775914e-12
2.37577345e-12
2.362879841e-12
2.350093857e-12
2.337414271e-12
2.324839864e-12
2.312369434e-12
2.300001797e-12
2.287735791e-12
2.275570286e-12
2.263504175e-12
2.251536372e-12
2.239665812e-12
2.227891435e-12
2.216212184e-12
2.204627003e-12
2.193134828e-12
2.181734598e-12
2.170425258e-12
2.159205765e-12
2.148075099e-12
2.137032271e-12
2.126076323e-12
2.115206325e-12
2.104421378e-12
2.093720595e-12
2.083103102e-12
2.072568024e-12
2.062114484e-12
2.051741602e-12
2.041448502e-12
2.031234319e-12
2.021098204e-12
2.011039333e-12
2.00105691e-12
1.991150159e-12
1.981318322e-12
1.971560648e-12
1.96187639e-12
1.9522648e-12
1.942725129e-12
1.933256636e-12
1.923858594e-12
1.91453029e-12
1.905271031e-12
1.896080138e-12
1.886956938e-12
1.877900766e-12
1.868910956e-12
1.859986848e-12
1.851127795e-12
1.842333163e-12
1.833602339e-12
1.82493472e-12
1.81632971e-12
1.807786709e-12
1.799305104e-12
1.790884268e-12
1.782523563e-12
1.774222345e-12
1.765979975e-12
1.757795823e-12
1.749669271e-12
1.741599722e-12
1.733586598e-12
1.725629341e-12
1.717727416e-12
1.709880313e-12
1.70208755e-12
1.694348666e-12
1.686663233e-12
1.679030866e-12
1.671451244e-12
1.663924131e-12
1.656449403e-12
1.649027044e-12
1.641657051e-12
1.63433918e-12
1.6270725e-12
1.619854965e-12
1.612683558e-12
1.605555024e-12
1.598465216e-12
1.591409259e-12
1.584390577e-12
1.577038136e-12
1.568960795e-12
1.560102841e-12
1.550407595e-12
1.539815942e-12
1.528262465e-12
1.515672222e-12
1.501959793e-12
1.487029721e-12
1.470779376e-12
1.453105802e-12
1.433907033e-12
1.413089854e-12
1.390568331e-12
1.366265739e-12
1.340114573e-12
1.312058083e-12
1.282046002e-12
1.25004736e-12
1.216041066e-12
1.180027195e-12
1.142037852e-12
1.102118905e-12
1.060373162e-12
1.016919022e-12
9.719423928e-13
9.256564594e-13
8.783490629e-13
8.303465904e-13
7.820622377e-13
7.339637018e-13
6.866239227e-13
6.406989437e-13
5.969870435e-13
5.564229772e-13
5.201631046e-13
4.896186384e-13
4.666027172e-13
4.534776377e-13
4.290576295e-12
4.63626513e-12
5.007242558e-12
5.386566227e-12
5.760489769e-12
6.11935249e-12
6.457162927e-12
6.770732227e-12
7.058811805e-12
7.321401935e-12
7.559256858e-12
7.773556371e-12
7.965697597e-12
8.137164446e-12
8.289444963e-12
8.423980235e-12
8.542136575e-12
8.645194328e-12
8.734346043e-12
8.810697872e-12
8.875271327e-12
8.929005819e-12
8.972763518e-12
9.007336662e-12
9.033455522e-12
9.051794772e-12
9.062977294e-12
9.067576358e-12
9.066118053e-12
9.059085279e-12
9.046923081e-12
9.030043965e-12
9.00883176e-12
8.983643534e-12
8.954810193e-12
8.922637024e-12
8.887405121e-12
8.849373895e-12
8.808784075e-12
8.765860312e-12
8.720812822e-12
8.673838029e-12
8.625118658e-12
8.574823898e-12
8.523110044e-12
8.470121661e-12
8.415993028e-12
8.360849473e-12
8.304808299e-12
8.247979271e-12
8.190464762e-12
8.132359804e-12
8.073752264e-12
8.01472325e-12
7.955347696e-12
7.895695055e-12
7.835829934e-12
7.775812583e-12
7.715699212e-12
7.655542173e-12
7.595390046e-12
7.535287739e-12
7.475276628e-12
7.415394748e-12
7.355677044e-12
7.296155643e-12
7.236860105e-12
7.177817655e-12
7.119053379e-12
7.060590367e-12
7.00244984e-12
6.944651265e-12
6.887212439e-12
6.830149591e-12
6.773477475e-12
6.717209448e-12
6.661357557e-12
6.605932615e-12
6.550944267e-12
6.496401058e-12
6.4423105e-12
6.388679133e-12
6.335512589e-12
6.282815669e-12
6.230592396e-12
6.178846088e-12
6.127579423e-12
6.07679449e-12
6.026492844e-12
5.976675552e-12
5.927343227e-12
5.878496065e-12
5.830133871e-12
5.78225608e-12
5.734861781e-12
5.687949731e-12
5.641518384e-12
5.595565896e-12
5.550090153e-12
5.50508879e-12
5.460559205e-12
5.416498582e-12
5.372903911e-12
5.329772001e-12
5.287099499e-12
5.244882911e-12
5.203118609e-12
5.16180285e-12
5.120931788e-12
5.080501484e-12
5.040507919e-12
5.000947004e-12
4.961814592e-12
4.92310648e-12
4.884818426e-12
4.846946146e-12
4.809485329e-12
4.772431638e-12
4.735780718e-12
4.699528202e-12
4.663669715e-12
4.628200877e-12
4.593117308e-12
4.558414635e-12
4.524088494e-12
4.49013453e-12
4.456548407e-12
4.4233258e-12
4.390462408e-12
4.357953951e-12
4.325796174e-12
4.293984847e-12
4.262515771e-12
4.231384774e-12
4.200587715e-12
4.170120487e-12
4.139979014e-12
4.110159255e-12
4.080657208e-12
4.051468901e-12
4.022590402e-12
3.994017818e-12
3.965747289e-12
3.937774999e-12
3.910097168e-12
3.882710056e-12
3.855609962e-12
3.828793227e-12
3.802256229e-12
3.775995388e-12
3.750007166e-12
3.724288065e-12
3.698834627e-12
3.673643436e-12
3.648711117e-12
3.624034332e-12
3.599609787e-12
3.575434231e-12
3.551504452e-12
3.527817282e-12
3.504369596e-12
3.481158312e-12
3.45818039e-12
3.43543284e-12
3.412912714e-12
3.390617113e-12
3.368543188e-12
3.346688136e-12
3.325049198e-12
3.303623666e-12
3.282408874e-12
3.2614022e-12
3.240601061e-12
3.220002913e-12
3.199605243e-12
3.179405566e-12
3.159401422e-12
3.139590368e-12
3.119969983e-12
3.100537859e-12
3.081291604e-12
3.062228848e-12
3.043347239e-12
3.024644449e-12
3.006118185e-12
2.987766184e-12
2.969586227e-12
2.951576139e-12
2.933733791e-12
2.916057102e-12
2.898544035e-12
2.881192596e-12
2.864000824e-12
2.84696679e-12
2.830088586e-12
2.813364323e-12
2.796792127e-12
2.780370139e-12
2.764096515e-12
2.747969431e-12
2.731987089e-12
2.716147718e-12
2.700449584e-12
2.684890988e-12
2.669470269e-12
2.6541858e-12
2.639035981e-12
2.624019234e-12
2.609133998e-12
2.594378717e-12
2.57975184e-12
2.565251822e-12
2.550877125e-12
2.536626226e-12
2.522497628e-12
2.508489868e-12
2.494601525e-12
2.480831225e-12
2.467177637e-12
2.453639473e-12
2.440215472e-12
2.426904392e-12
2.413704996e-12
2.400616043e-12
2.387636287e-12
2.374764472e-12
2.361999342e-12
2.349339651e-12
2.336784172e-12
2.324331708e-12
2.311981104e-12
2.29973124e-12
2.287581031e-12
2.275529423e-12
2.263575373e-12
2.25171784e-12
2.239955777e-12
2.228288123e-12
2.216713803e-12
2.205231736e-12
2.193840844e-12
2.182540064e-12
2.171328362e-12
2.160204737e-12
2.149168227e-12
2.138217907e-12
2.127352883e-12
2.116572279e-12
2.105875234e-12
2.095260889e-12
2.084728385e-12
2.074276863e-12
2.063905467e-12
2.053613347e-12
2.043399665e-12
2.033263601e-12
2.023204348e-12
2.013221115e-12
2.003313122e-12
1.993479597e-12
1.983719773e-12
1.974032894e-12
1.964418209e-12
1.954874987e-12
1.945402509e-12
1.936000075e-12
1.926666998e-12
1.917402602e-12
1.908206217e-12
1.899077177e-12
1.890014821e-12
1.881018497e-12
1.872087564e-12
1.863221394e-12
1.854419368e-12
1.84568087e-12
1.837005286e-12
1.82839199e-12
1.819840348e-12
1.811349717e-12
1.802919452e-12
1.794548911e-12
1.786237459e-12
1.777984475e-12
1.769789354e-12
1.761651513e-12
1.753570382e-12
1.74554541e-12
1.737576073e-12
1.729661873e-12
1.721802337e-12
1.713997015e-12
1.7062455e-12
1.698547441e-12
1.690902545e-12
1.683310591e-12
1.67577141e-12
1.668284783e-12
1.66085024e-12
1.653466769e-12
1.646132551e-12
1.638845066e-12
1.631601456e-12
1.624398439e-12
1.617232959e-12
1.610107009e-12
1.602646312e-12
1.594451431e-12
1.585464069e-12
1.575624773e-12
1.564871502e-12
1.553136776e-12
1.540344513e-12
1.526409299e-12
1.511235961e-12
1.494722141e-12
1.476764697e-12
1.457260573e-12
1.436114521e-12
1.413239351e-12
1.388555134e-12
1.3619933e-12
1.333495493e-12
1.303009374e-12
1.270504687e-12
1.235958849e-12
1.199372211e-12
1.160778464e-12
1.120222339e-12
1.077810998e-12
1.033661324e-12
9.879660964e-13
9.409374903e-13
8.92871857e-13
8.440977255e-13
7.950364319e-13
7.461631174e-13
6.980590392e-13
6.513922031e-13
6.069729047e-13
5.657515979e-13
5.289036905e-13
4.978632604e-13
4.744732316e-13
4.611349271e-13
4.867123162e-12
5.169915936e-12
5.496512898e-12
5.833123692e-12
6.167958268e-12
6.492189055e-12
6.799901574e-12
7.087577666e-12
7.353470718e-12
7.597048601e-12
7.818565788e-12
8.018763646e-12
8.198669749e-12
8.359462893e-12
8.502380393e-12
8.628656482e-12
8.739486318e-12
8.836009159e-12
8.919301985e-12
8.990376159e-12
9.050174324e-12
9.099568994e-12
9.139365074e-12
9.170306226e-12
9.193082249e-12
9.208334327e-12
9.216657041e-12
9.218598696e-12
9.214662634e-12
9.205311109e-12
9.190971123e-12
9.172040166e-12
9.148889896e-12
9.121867225e-12
9.091293908e-12
9.057466364e-12
9.020656993e-12
8.981117074e-12
8.939080277e-12
8.89476556e-12
8.84837868e-12
8.800112397e-12
8.750146042e-12
8.698645339e-12
8.645763003e-12
8.591640097e-12
8.536407763e-12
8.480188751e-12
8.423098379e-12
8.365244863e-12
8.306729236e-12
8.247645182e-12
8.188079106e-12
8.12811055e-12
8.06781288e-12
8.007254108e-12
7.946497629e-12
7.88560274e-12
7.824624931e-12
7.763615985e-12
7.702623982e-12
7.64169333e-12
7.580864869e-12
7.520176063e-12
7.459661273e-12
7.399352067e-12
7.339277501e-12
7.279464365e-12
7.219937389e-12
7.160719373e-12
7.101831314e-12
7.043292493e-12
6.985120557e-12
6.927331606e-12
6.869940285e-12
6.812959853e-12
6.756402265e-12
6.700278246e-12
6.644597351e-12
6.589368029e-12
6.534597689e-12
6.480292757e-12
6.426458747e-12
6.373100335e-12
6.320221425e-12
6.26782522e-12
6.215914294e-12
6.164490648e-12
6.113555763e-12
6.063110654e-12
6.013155893e-12
5.963691649e-12
5.914717711e-12
5.866233503e-12
5.818238104e-12
5.770730264e-12
5.723708422e-12
5.677170718e-12
5.631115014e-12
5.585538917e-12
5.540439791e-12
5.495814784e-12
5.451660843e-12
5.407974735e-12
5.364753062e-12
5.321992283e-12
5.279688725e-12
5.237838598e-12
5.196438011e-12
5.15548298e-12
5.11496944e-12
5.074893261e-12
5.035250253e-12
4.996036174e-12
4.95724674e-12
4.91887763e-12
4.880924491e-12
4.84338295e-12
4.806248615e-12
4.76951708e-12
4.733183935e-12
4.697244763e-12
4.661695146e-12
4.626530679e-12
4.591746959e-12
4.557339599e-12
4.523304226e-12
4.489636482e-12
4.456332028e-12
4.423386551e-12
4.39079576e-12
4.358555391e-12
4.32666121e-12
4.295109011e-12
4.263894616e-12
4.233013884e-12
4.202462703e-12
4.172236997e-12
4.142332728e-12
4.112745889e-12
4.083472511e-12
4.054508665e-12
4.025850456e-12
3.997494029e-12
3.969435571e-12
3.941671303e-12
3.914197489e-12
3.887010432e-12
3.860106472e-12
3.833481993e-12
3.807133421e-12
3.781057221e-12
3.755249897e-12
3.729707996e-12
3.704428104e-12
3.679406846e-12
3.654640888e-12
3.630126941e-12
3.605861754e-12
3.581842119e-12
3.558064874e-12
3.534526895e-12
3.511225107e-12
3.48815648e-12
3.465318033e-12
3.442706836e-12
3.420320008e-12
3.39815472e-12
3.376208192e-12
3.354477696e-12
3.33296055e-12
3.31165412e-12
3.290555817e-12
3.269663087e-12
3.248973413e-12
3.228484303e-12
3.208193288e-12
3.188097913e-12
3.168195738e-12
3.14848433e-12
3.128961269e-12
3.109624149e-12
3.090470577e-12
3.071498184e-12
3.052704627e-12
3.034087603e-12
3.015644848e-12
2.99737415e-12
2.979273348e-12
2.961340335e-12
2.943573058e-12
2.925969507e-12
2.908527711e-12
2.891245729e-12
2.874121643e-12
2.857153548e-12
2.840339549e-12
2.823677764e-12
2.807166318e-12
2.790803356e-12
2.774587049e-12
2.758515594e-12
2.742587233e-12
2.726800248e-12
2.71115296e-12
2.695643736e-12
2.68027097e-12
2.665033079e-12
2.649928491e-12
2.634955638e-12
2.620112948e-12
2.605398847e-12
2.590811762e-12
2.576350135e-12
2.56201243e-12
2.547797154e-12
2.533702863e-12
2.519728171e-12
2.505871747e-12
2.492132307e-12
2.478508602e-12
2.464999401e-12
2.451603469e-12
2.438319561e-12
2.425146411e-12
2.412082734e-12
2.399127236e-12
2.38627863e-12
2.37353565e-12
2.360897066e-12
2.348361698e-12
2.335928417e-12
2.323596142e-12
2.311363826e-12
2.29923044e-12
2.287194958e-12
2.275256338e-12
2.263413515e-12
2.251665399e-12
2.240010883e-12
2.228448853e-12
2.216978208e-12
2.205597874e-12
2.194306813e-12
2.183104037e-12
2.171988603e-12
2.160959607e-12
2.150016179e-12
2.139157466e-12
2.128382623e-12
2.117690806e-12
2.107081167e-12
2.096552852e-12
2.086105005e-12
2.075736774e-12
2.065447313e-12
2.055235788e-12
2.04510138e-12
2.035043281e-12
2.025060697e-12
2.015152849e-12
2.005318968e-12
1.995558299e-12
1.985870102e-12
1.976253655e-12
1.96670825e-12
1.957233195e-12
1.947827809e-12
1.938491418e-12
1.929223354e-12
1.920022953e-12
1.910889557e-12
1.901822516e-12
1.892821188e-12
1.883884938e-12
1.875013136e-12
1.866205152e-12
1.857460351e-12
1.848778089e-12
1.840157718e-12
1.83159859e-12
1.823100059e-12
1.814661488e-12
1.806282247e-12
1.797961724e-12
1.789699326e-12
1.78149448e-12
1.773346618e-12
1.765255196e-12
1.757219698e-12
1.749239639e-12
1.741314548e-12
1.73344399e-12
1.72562758e-12
1.717864973e-12
1.710155859e-12
1.702499938e-12
1.694896827e-12
1.687345905e-12
1.679846139e-12
1.672395931e-12
1.664993185e-12
1.65763551e-12
1.65032031e-12
1.643045381e-12
1.635812296e-12
1.628242142e-12
1.619928583e-12
1.610810913e-12
1.600827044e-12
1.589912266e-12
1.577997006e-12
1.565003796e-12
1.550846868e-12
1.535431196e-12
1.518654496e-12
1.500413554e-12
1.480604213e-12
1.459129337e-12
1.435900573e-12
1.410834865e-12
1.383862547e-12
1.354923756e-12
1.323963939e-12
1.290953628e-12
1.255868705e-12
1.218709726e-12
1.179512068e-12
1.138319192e-12
1.095242733e-12
1.050397951e-12
1.003984578e-12
9.562137154e-13
9.073902658e-13
8.578448628e-13
8.080070066e-13
7.583592574e-13
7.094912058e-13
6.620828005e-13
6.169563679e-13
5.750780452e-13
5.376422974e-13
5.061060556e-13
4.823420314e-13
4.687905581e-13
5.432634948e-12
5.696504836e-12
5.982817133e-12
6.280213823e-12
6.578574935e-12
6.869924846e-12
7.148583262e-12
7.410887663e-12
7.654754777e-12
7.879244138e-12
8.08420008e-12
8.269988168e-12
8.437308756e-12
8.587062701e-12
8.720252983e-12
8.837916318e-12
8.941081905e-12
9.030750778e-12
9.107885713e-12
9.173403526e-12
9.228167485e-12
9.272982338e-12
9.308594807e-12
9.335699048e-12
9.354943312e-12
9.366933955e-12
9.372235734e-12
9.371370561e-12
9.36481795e-12
9.353018843e-12
9.336381798e-12
9.315288882e-12
9.290098953e-12
9.261147919e-12
9.228747442e-12
9.193184271e-12
9.154721579e-12
9.113602242e-12
9.070052744e-12
9.024286198e-12
8.976503629e-12
8.926893718e-12
8.875631932e-12
8.822880102e-12
8.768787043e-12
8.71349013e-12
8.657117267e-12
8.599788562e-12
8.541617242e-12
8.482709823e-12
8.423165794e-12
8.36307728e-12
8.302529035e-12
8.241598886e-12
8.180358534e-12
8.118874486e-12
8.057208873e-12
7.995419989e-12
7.933562533e-12
7.871687636e-12
7.809842787e-12
7.748071799e-12
7.686414891e-12
7.624908883e-12
7.563587502e-12
7.502481712e-12
7.441620025e-12
7.381028764e-12
7.320732266e-12
7.26075301e-12
7.201111725e-12
7.141827469e-12
7.082917701e-12
7.02439836e-12
6.966283948e-12
6.908587597e-12
6.851321149e-12
6.794495218e-12
6.738119249e-12
6.682201576e-12
6.626749487e-12
6.57176928e-12
6.517266332e-12
6.463245181e-12
6.409709593e-12
6.356662644e-12
6.30410679e-12
6.252043929e-12
6.200475461e-12
6.149402332e-12
6.098825067e-12
6.048743798e-12
5.999158287e-12
5.950067941e-12
5.901471822e-12
5.853368662e-12
5.805756883e-12
5.758634599e-12
5.711999644e-12
5.665849591e-12
5.620181765e-12
5.574993272e-12
5.530281013e-12
5.486041706e-12
5.442271905e-12
5.398968018e-12
5.356126322e-12
5.313742979e-12
5.271814047e-12
5.230335494e-12
5.189303208e-12
5.148713014e-12
5.108560677e-12
5.068841911e-12
5.029552391e-12
4.990687752e-12
4.952243603e-12
4.91421553e-12
4.876599101e-12
4.839389874e-12
4.802583397e-12
4.766175217e-12
4.730160879e-12
4.694535939e-12
4.65929596e-12
4.624436518e-12
4.589953202e-12
4.555841621e-12
4.522097397e-12
4.488716183e-12
4.455693653e-12
4.423025506e-12
4.390707474e-12
4.358735314e-12
4.327104814e-12
4.295811796e-12
4.264852113e-12
4.234221654e-12
4.203916343e-12
4.173932139e-12
4.144265037e-12
4.114911071e-12
4.085866309e-12
4.057126861e-12
4.028688876e-12
4.000548541e-12
3.97270208e-12
3.945145761e-12
3.917875887e-12
3.890888804e-12
3.864180903e-12
3.83774861e-12
3.811588395e-12
3.785696764e-12
3.760070268e-12
3.734705491e-12
3.709599063e-12
3.684747653e-12
3.660147974e-12
3.635796778e-12
3.611690863e-12
3.587827069e-12
3.564202279e-12
3.54081343e-12
3.517657505e-12
3.494731541e-12
3.47203263e-12
3.449557917e-12
3.427304599e-12
3.405269929e-12
3.383451211e-12
3.361845801e-12
3.340451098e-12
3.319264546e-12
3.298283619e-12
3.27750582e-12
3.256928669e-12
3.236549697e-12
3.216366446e-12
3.196376459e-12
3.176577284e-12
3.156966479e-12
3.13754161e-12
3.118300264e-12
3.099240055e-12
3.080358632e-12
3.061653691e-12
3.043122984e-12
3.02476432e-12
3.006575568e-12
2.988554657e-12
2.970699564e-12
2.953008308e-12
2.935478938e-12
2.918109524e-12
2.900898144e-12
2.883842886e-12
2.866941838e-12
2.8501931e-12
2.833594784e-12
2.817145027e-12
2.800842e-12
2.784683918e-12
2.768669044e-12
2.752795687e-12
2.737062203e-12
2.721466981e-12
2.706008432e-12
2.690684975e-12
2.675495027e-12
2.660436993e-12
2.645509272e-12
2.630710256e-12
2.616038347e-12
2.601491978e-12
2.587069623e-12
2.572769819e-12
2.558591167e-12
2.544532336e-12
2.530592047e-12
2.51676906e-12
2.503062149e-12
2.489470083e-12
2.475991606e-12
2.462625434e-12
2.449370254e-12
2.436224737e-12
2.423187556e-12
2.410257409e-12
2.39743304e-12
2.384713248e-12
2.372096896e-12
2.359582901e-12
2.347170224e-12
2.334857845e-12
2.322644744e-12
2.31052988e-12
2.298512179e-12
2.286590535e-12
2.274763815e-12
2.263030877e-12
2.251390585e-12
2.239841835e-12
2.228383564e-12
2.217014762e-12
2.205734474e-12
2.19454179e-12
2.183435841e-12
2.17241578e-12
2.161480769e-12
2.150629969e-12
2.139862533e-12
2.129177604e-12
2.118574315e-12
2.108051797e-12
2.09760918e-12
2.087245607e-12
2.076960232e-12
2.066752227e-12
2.056620782e-12
2.046565105e-12
2.036584418e-12
2.026677962e-12
2.016844991e-12
2.007084776e-12
1.997396605e-12
1.987779778e-12
1.97823361e-12
1.968757421e-12
1.959350541e-12
1.950012298e-12
1.940742029e-12
1.931539071e-12
1.922402772e-12
1.913332481e-12
1.904327555e-12
1.895387349e-12
1.886511221e-12
1.877698517e-12
1.868948585e-12
1.860260769e-12
1.85163442e-12
1.8430689e-12
1.834563573e-12
1.826117812e-12
1.817731016e-12
1.809402604e-12
1.801132003e-12
1.792918646e-12
1.784761995e-12
1.776661546e-12
1.768616807e-12
1.760627313e-12
1.752692643e-12
1.744812407e-12
1.736986221e-12
1.729213694e-12
1.721494326e-12
1.713827395e-12
1.706211852e-12
1.698646256e-12
1.691128843e-12
1.68365769e-12
1.676230821e-12
1.668846614e-12
1.661506505e-12
1.65382605e-12
1.645392615e-12
1.636143539e-12
1.626014224e-12
1.614937401e-12
1.602841718e-12
1.589648274e-12
1.575270669e-12
1.559613732e-12
1.542574938e-12
1.524051062e-12
1.503936836e-12
1.482133348e-12
1.458551179e-12
1.43310423e-12
1.405721702e-12
1.376342334e-12
1.344909235e-12
1.311393778e-12
1.275770284e-12
1.238039442e-12
1.198238407e-12
1.15640925e-12
1.112668182e-12
1.067128752e-12
1.019997707e-12
9.714850263e-13
9.219041955e-13
8.715879242e-13
8.209738935e-13
7.705520639e-13
7.209203719e-13
6.727706919e-13
6.269373945e-13
5.844022849e-13
5.463788944e-13
5.143469958e-13
4.902090901e-13
4.764445038e-13
1.006356738e-11
1.636084963e-11
2.904291673e-11
4.78922287e-11
7.005819383e-11
9.235335192e-11
1.129774344e-10
1.31129111e-10
1.46474187e-10
1.589342001e-10
1.694993782e-10
1.806345023e-10
1.942193932e-10
2.108879929e-10
1.022343966e-11
1.659530976e-11
2.938095746e-11
4.830129542e-11
7.048079591e-11
9.275735187e-11
1.133415359e-10
1.314119035e-10
1.465987139e-10
1.587959563e-10
1.68967609e-10
1.794146704e-10
1.915604936e-10
2.051499704e-10
1.038272955e-11
1.682788182e-11
2.971346324e-11
4.869804276e-11
7.087997005e-11
9.311786394e-11
1.136257865e-10
1.315546527e-10
1.464967405e-10
1.583295617e-10
1.680091104e-10
1.776894198e-10
1.884720682e-10
1.997956586e-10
1.054143033e-11
1.705855428e-11
3.004043403e-11
4.908251913e-11
7.125583609e-11
9.343525023e-11
1.138317314e-10
1.315635071e-10
1.46187998e-10
1.575842904e-10
1.667222827e-10
1.756362021e-10
1.852227051e-10
1.948808333e-10
1.06995354e-11
1.728731622e-11
3.036187219e-11
4.94547815e-11
7.160855136e-11
9.371002976e-11
1.139614723e-10
1.314461028e-10
1.456946127e-10
1.566091189e-10
1.651923663e-10
1.733828939e-10
1.819520453e-10
1.9036104e-10
1.085703828e-11
1.751415732e-11
3.067778242e-11
4.981489518e-11
7.193830959e-11
9.39428702e-11
1.140175896e-10
1.312111121e-10
1.450394169e-10
1.554490824e-10
1.63488357e-10
1.710169314e-10
1.787290185e-10
1.861744955e-10
1.101393263e-11
1.773906793e-11
3.09881717e-11
5.016293361e-11
7.224533974e-11
9.413457591e-11
1.14003057e-10
1.308678381e-10
1.44244706e-10
1.541435311e-10
1.616637818e-10
1.685963626e-10
1.75585323e-10
1.822655592e-10
1.117021222e-11
1.796203896e-11
3.129304926e-11
5.049897813e-11
7.252990459e-11
9.428607524e-11
1.139211606e-10
1.304258637e-10
1.433314171e-10
1.527257176e-10
1.597591411e-10
1.661590349e-10
1.725334895e-10
1.785892451e-10
1.132587093e-11
1.818306197e-11
3.159242651e-11
5.082311785e-11
7.279229924e-11
9.439840746e-11
1.137754202e-10
1.298947587e-10
1.423186612e-10
1.512230995e-10
1.578045839e-10
1.637292743e-10
1.695764572e-10
1.75110419e-10
1.148090279e-11
1.840212907e-11
3.1886317e-11
5.113544935e-11
7.303284934e-11
9.447270876e-11
1.135695141e-10
1.292838531e-10
1.412234954e-10
1.496579472e-10
1.558223368e-10
1.613225775e-10
1.667126092e-10
1.718017442e-10
1.163530194e-11
1.861923301e-11
3.21747364e-11
5.143607658e-11
7.325190923e-11
9.451019761e-11
1.133072087e-10
1.286020648e-10
1.400608938e-10
1.480481667e-10
1.538287418e-10
1.589486805e-10
1.639382836e-10
1.686418124e-10
1.178906264e-11
1.883436708e-11
3.245770241e-11
5.172511055e-11
7.344985981e-11
9.451216033e-11
1.129922978e-10
1.278577905e-10
1.388438691e-10
1.464080868e-10
1.51835776e-10
1.566135598e-10
1.612490632e-10
1.656136822e-10
1.194217928e-11
1.904752517e-11
3.273523479e-11
5.200266912e-11
7.36271064e-11
9.447993751e-11
1.126285545e-10
1.270588499e-10
1.375836378e-10
1.447491103e-10
1.498521918e-10
1.543207678e-10
1.586404338e-10
1.62703762e-10