/*--------------------------------*- C++ -*----------------------------------*\
  =========                 |
  \\      /  F ield         | OpenFOAM: The Open Source CFD Toolbox
   \\    /   O peration     | Website:  https://openfoam.org
    \\  /    A nd           | Version:  7
     \\/     M anipulation  |
\*---------------------------------------------------------------------------*/
FoamFile
{
    version     2.0;
    format      ascii;
    class       volVectorField;
    location    "7e-13/dielectric";
    object      EDext;
}
// * * * * * * * * * * * * * * * * * * * * * * * * * * * * * * * * * * * * * //

dimensions      [1 1 -3 0 0 -1 0];

internalField   nonuniform List<vector> 
4960
(
(2826.45 -650939 -0)
(2758.55 -645383 -0)
(2722.27 -639898 -0)
(2676.03 -634501 -0)
(2628.98 -629197 -0)
(2583.28 -623986 -0)
(2538.65 -618864 -0)
(2494.75 -613832 -0)
(2451.47 -608886 -0)
(2408.82 -604027 -0)
(2366.8 -599252 -0)
(2325.4 -594560 -0)
(2284.61 -589951 -0)
(2244.41 -585422 -0)
(2204.78 -580974 -0)
(2165.71 -576604 -0)
(2127.19 -572311 -0)
(2089.2 -568095 -0)
(2051.73 -563955 -0)
(2014.76 -559889 -0)
(1978.3 -555896 -0)
(1942.31 -551976 -0)
(1906.8 -548128 -0)
(1871.74 -544350 -0)
(1837.14 -540641 -0)
(1802.97 -537001 -0)
(1769.23 -533430 -0)
(1735.91 -529925 -0)
(1703 -526486 -0)
(1670.48 -523113 -0)
(1638.35 -519805 -0)
(1606.59 -516560 -0)
(1575.21 -513379 -0)
(1544.18 -510260 -0)
(1513.5 -507203 -0)
(1483.17 -504206 -0)
(1453.16 -501270 -0)
(1423.48 -498394 -0)
(1394.12 -495577 -0)
(1365.06 -492818 -0)
(1336.3 -490117 -0)
(1307.83 -487473 -0)
(1279.65 -484886 -0)
(1251.74 -482354 -0)
(1224.1 -479879 -0)
(1196.72 -477458 -0)
(1169.59 -475092 -0)
(1142.72 -472780 -0)
(1116.08 -470522 -0)
(1089.67 -468316 -0)
(1063.49 -466163 -0)
(1037.54 -464062 -0)
(1011.79 -462013 -0)
(986.256 -460015 -0)
(960.921 -458068 -0)
(935.783 -456172 -0)
(910.834 -454325 -0)
(886.07 -452529 -0)
(861.484 -450781 -0)
(837.071 -449083 -0)
(812.826 -447433 -0)
(788.743 -445832 -0)
(764.817 -444278 -0)
(741.042 -442773 -0)
(717.413 -441314 -0)
(693.926 -439903 -0)
(670.575 -438539 -0)
(647.355 -437221 -0)
(624.262 -435950 -0)
(601.289 -434724 -0)
(578.434 -433545 -0)
(555.69 -432411 -0)
(533.053 -431322 -0)
(510.518 -430278 -0)
(488.081 -429280 -0)
(465.738 -428326 -0)
(443.483 -427417 -0)
(421.313 -426552 -0)
(399.222 -425732 -0)
(377.207 -424956 -0)
(355.262 -424223 -0)
(333.385 -423535 -0)
(311.57 -422890 -0)
(289.813 -422288 -0)
(268.11 -421730 -0)
(246.457 -421216 -0)
(224.85 -420745 -0)
(203.284 -420317 -0)
(181.757 -419932 -0)
(160.263 -419590 -0)
(138.799 -419291 -0)
(117.362 -419034 -0)
(95.9492 -418821 -0)
(74.5589 -418651 -0)
(53.1934 -418523 -0)
(31.8636 -418438 -0)
(10.6049 -418396 -0)
(8479.63 -650870 -0)
(8282.53 -645281 -0)
(8158.96 -639800 -0)
(8024.97 -634409 -0)
(7886.57 -629107 -0)
(7749.6 -623897 -0)
(7615.36 -618777 -0)
(7483.51 -613745 -0)
(7353.69 -608801 -0)
(7225.78 -603943 -0)
(7099.76 -599169 -0)
(6975.59 -594479 -0)
(6853.23 -589871 -0)
(6732.64 -585343 -0)
(6613.77 -580896 -0)
(6496.58 -576527 -0)
(6381.02 -572236 -0)
(6267.07 -568021 -0)
(6154.67 -563882 -0)
(6043.79 -559817 -0)
(5934.4 -555825 -0)
(5826.46 -551906 -0)
(5719.93 -548058 -0)
(5614.78 -544281 -0)
(5510.98 -540574 -0)
(5408.49 -536935 -0)
(5307.28 -533364 -0)
(5207.33 -529860 -0)
(5108.59 -526422 -0)
(5011.05 -523050 -0)
(4914.66 -519742 -0)
(4819.41 -516498 -0)
(4725.26 -513318 -0)
(4632.19 -510199 -0)
(4540.17 -507143 -0)
(4449.17 -504147 -0)
(4359.17 -501212 -0)
(4270.14 -498336 -0)
(4182.05 -495519 -0)
(4094.89 -492761 -0)
(4008.62 -490061 -0)
(3923.22 -487417 -0)
(3838.67 -484831 -0)
(3754.96 -482300 -0)
(3672.04 -479825 -0)
(3589.91 -477405 -0)
(3508.54 -475039 -0)
(3427.91 -472728 -0)
(3348 -470470 -0)
(3268.79 -468265 -0)
(3190.26 -466112 -0)
(3112.39 -464012 -0)
(3035.17 -461963 -0)
(2958.57 -459966 -0)
(2882.57 -458019 -0)
(2807.16 -456123 -0)
(2732.32 -454277 -0)
(2658.03 -452481 -0)
(2584.28 -450734 -0)
(2511.05 -449036 -0)
(2438.32 -447386 -0)
(2366.07 -445785 -0)
(2294.3 -444232 -0)
(2222.98 -442727 -0)
(2152.1 -441268 -0)
(2081.64 -439858 -0)
(2011.59 -438493 -0)
(1941.94 -437176 -0)
(1872.66 -435905 -0)
(1803.75 -434679 -0)
(1735.19 -433500 -0)
(1666.96 -432366 -0)
(1599.05 -431278 -0)
(1531.46 -430235 -0)
(1464.15 -429236 -0)
(1397.12 -428283 -0)
(1330.36 -427374 -0)
(1263.86 -426509 -0)
(1197.59 -425689 -0)
(1131.55 -424913 -0)
(1065.72 -424180 -0)
(1000.09 -423492 -0)
(934.646 -422847 -0)
(869.379 -422246 -0)
(804.275 -421688 -0)
(739.319 -421174 -0)
(674.502 -420703 -0)
(609.809 -420275 -0)
(545.229 -419890 -0)
(480.751 -419548 -0)
(416.363 -419249 -0)
(352.054 -418993 -0)
(287.817 -418780 -0)
(223.644 -418609 -0)
(159.537 -418482 -0)
(95.5125 -418397 -0)
(31.7625 -418354 -0)
(14108 -650714 -0)
(13828.8 -645098 -0)
(13594.4 -639610 -0)
(13368.4 -634222 -0)
(13140.6 -628926 -0)
(12913.8 -623719 -0)
(12690.2 -618602 -0)
(12470.3 -613573 -0)
(12253.9 -608631 -0)
(12040.8 -603776 -0)
(11830.8 -599005 -0)
(11623.9 -594317 -0)
(11420 -589711 -0)
(11219.1 -585186 -0)
(11021 -580741 -0)
(10825.8 -576375 -0)
(10633.2 -572085 -0)
(10443.4 -567873 -0)
(10256.1 -563736 -0)
(10071.3 -559673 -0)
(9889.05 -555683 -0)
(9709.18 -551766 -0)
(9531.68 -547920 -0)
(9356.47 -544145 -0)
(9183.5 -540439 -0)
(9012.73 -536802 -0)
(8844.08 -533232 -0)
(8677.53 -529730 -0)
(8513 -526294 -0)
(8350.46 -522923 -0)
(8189.85 -519617 -0)
(8031.13 -516375 -0)
(7874.25 -513195 -0)
(7719.16 -510079 -0)
(7565.82 -507023 -0)
(7414.19 -504029 -0)
(7264.21 -501095 -0)
(7115.85 -498220 -0)
(6969.07 -495405 -0)
(6823.82 -492648 -0)
(6680.06 -489949 -0)
(6537.76 -487307 -0)
(6396.88 -484721 -0)
(6257.37 -482191 -0)
(6119.2 -479717 -0)
(5982.34 -477298 -0)
(5846.75 -474934 -0)
(5712.39 -472623 -0)
(5579.23 -470366 -0)
(5447.23 -468162 -0)
(5316.37 -466010 -0)
(5186.61 -463911 -0)
(5057.92 -461863 -0)
(4930.27 -459866 -0)
(4803.63 -457921 -0)
(4677.97 -456025 -0)
(4553.25 -454180 -0)
(4429.46 -452384 -0)
(4306.56 -450638 -0)
(4184.52 -448941 -0)
(4063.32 -447292 -0)
(3942.93 -445691 -0)
(3823.33 -444139 -0)
(3704.48 -442634 -0)
(3586.36 -441177 -0)
(3468.95 -439766 -0)
(3352.22 -438403 -0)
(3236.15 -437086 -0)
(3120.7 -435815 -0)
(3005.86 -434590 -0)
(2891.61 -433411 -0)
(2777.91 -432278 -0)
(2664.75 -431190 -0)
(2552.1 -430147 -0)
(2439.93 -429149 -0)
(2328.24 -428196 -0)
(2216.99 -427287 -0)
(2106.15 -426423 -0)
(1995.72 -425603 -0)
(1885.66 -424827 -0)
(1775.96 -424095 -0)
(1666.59 -423407 -0)
(1557.54 -422763 -0)
(1448.77 -422162 -0)
(1340.28 -421604 -0)
(1232.03 -421090 -0)
(1124.01 -420619 -0)
(1016.2 -420191 -0)
(908.582 -419806 -0)
(801.129 -419465 -0)
(693.827 -419166 -0)
(586.655 -418910 -0)
(479.599 -418697 -0)
(372.643 -418526 -0)
(265.778 -418399 -0)
(158.996 -418314 -0)
(52.8133 -418272 -0)
(19708.3 -650431 -0)
(19386.1 -644827 -0)
(19035.1 -639334 -0)
(18709.2 -633946 -0)
(18390 -628653 -0)
(18073.8 -623452 -0)
(17761.4 -618339 -0)
(17453.7 -613314 -0)
(17150.8 -608377 -0)
(16852.5 -603525 -0)
(16558.7 -598758 -0)
(16269.1 -594074 -0)
(15983.8 -589472 -0)
(15702.6 -584951 -0)
(15425.5 -580509 -0)
(15152.2 -576146 -0)
(14882.7 -571860 -0)
(14617 -567650 -0)
(14354.9 -563516 -0)
(14096.4 -559456 -0)
(13841.3 -555470 -0)
(13589.5 -551555 -0)
(13341.1 -547712 -0)
(13095.9 -543940 -0)
(12853.8 -540237 -0)
(12614.8 -536602 -0)
(12378.8 -533035 -0)
(12145.7 -529536 -0)
(11915.4 -526102 -0)
(11688 -522733 -0)
(11463.2 -519430 -0)
(11241 -516189 -0)
(11021.5 -513012 -0)
(10804.4 -509898 -0)
(10589.8 -506844 -0)
(10377.6 -503852 -0)
(10167.6 -500920 -0)
(9960 -498047 -0)
(9754.56 -495234 -0)
(9551.27 -492478 -0)
(9350.07 -489781 -0)
(9150.9 -487140 -0)
(8953.71 -484557 -0)
(8758.45 -482029 -0)
(8565.07 -479556 -0)
(8373.51 -477139 -0)
(8183.72 -474776 -0)
(7995.67 -472467 -0)
(7809.29 -470211 -0)
(7624.54 -468008 -0)
(7441.38 -465858 -0)
(7259.76 -463760 -0)
(7079.64 -461713 -0)
(6900.97 -459718 -0)
(6723.72 -457773 -0)
(6547.83 -455879 -0)
(6373.27 -454035 -0)
(6200 -452240 -0)
(6027.97 -450495 -0)
(5857.16 -448798 -0)
(5687.52 -447151 -0)
(5519.01 -445551 -0)
(5351.6 -444000 -0)
(5185.25 -442496 -0)
(5019.92 -441039 -0)
(4855.58 -439630 -0)
(4692.19 -438267 -0)
(4529.72 -436951 -0)
(4368.13 -435681 -0)
(4207.39 -434456 -0)
(4047.46 -433278 -0)
(3888.32 -432146 -0)
(3729.92 -431058 -0)
(3572.24 -430016 -0)
(3415.25 -429019 -0)
(3258.9 -428066 -0)
(3103.18 -427158 -0)
(2948.04 -426294 -0)
(2793.46 -425475 -0)
(2639.41 -424699 -0)
(2485.86 -423968 -0)
(2332.77 -423280 -0)
(2180.11 -422636 -0)
(2027.87 -422035 -0)
(1876 -421478 -0)
(1724.48 -420964 -0)
(1573.28 -420494 -0)
(1422.38 -420066 -0)
(1271.73 -419681 -0)
(1121.32 -419340 -0)
(971.124 -419041 -0)
(821.107 -418786 -0)
(671.246 -418573 -0)
(521.519 -418402 -0)
(371.904 -418275 -0)
(222.377 -418190 -0)
(73.8166 -418148 -0)
(25305.9 -650015 -0)
(24926.4 -644448 -0)
(24475.1 -638965 -0)
(24048.5 -633580 -0)
(23634.9 -628292 -0)
(23228.4 -623096 -0)
(22827.4 -617989 -0)
(22432.2 -612970 -0)
(22043 -608038 -0)
(21659.7 -603192 -0)
(21282.1 -598430 -0)
(20910.1 -593750 -0)
(20543.4 -589153 -0)
(20182.1 -584637 -0)
(19825.9 -580200 -0)
(19474.7 -575841 -0)
(19128.5 -571560 -0)
(18787 -567354 -0)
(18450.2 -563224 -0)
(18117.9 -559169 -0)
(17790.1 -555186 -0)
(17466.6 -551275 -0)
(17147.3 -547436 -0)
(16832.2 -543667 -0)
(16521.1 -539967 -0)
(16214 -536336 -0)
(15910.6 -532773 -0)
(15611 -529276 -0)
(15315.1 -525846 -0)
(15022.8 -522481 -0)
(14733.9 -519180 -0)
(14448.4 -515943 -0)
(14166.2 -512768 -0)
(13887.2 -509656 -0)
(13611.4 -506606 -0)
(13338.6 -503616 -0)
(13068.8 -500687 -0)
(12802 -497817 -0)
(12537.9 -495006 -0)
(12276.6 -492253 -0)
(12018 -489558 -0)
(11762.1 -486919 -0)
(11508.6 -484338 -0)
(11257.7 -481812 -0)
(11009.1 -479342 -0)
(10762.9 -476926 -0)
(10519 -474565 -0)
(10277.3 -472258 -0)
(10037.7 -470004 -0)
(9800.27 -467803 -0)
(9564.86 -465655 -0)
(9331.42 -463558 -0)
(9099.91 -461513 -0)
(8870.27 -459519 -0)
(8642.44 -457576 -0)
(8416.36 -455684 -0)
(8192 -453841 -0)
(7969.29 -452048 -0)
(7748.19 -450304 -0)
(7528.64 -448609 -0)
(7310.59 -446963 -0)
(7094 -445364 -0)
(6878.82 -443814 -0)
(6665 -442311 -0)
(6452.5 -440856 -0)
(6241.26 -439447 -0)
(6031.25 -438086 -0)
(5822.41 -436771 -0)
(5614.71 -435502 -0)
(5408.1 -434278 -0)
(5202.53 -433101 -0)
(4997.97 -431969 -0)
(4794.38 -430883 -0)
(4591.7 -429841 -0)
(4389.89 -428845 -0)
(4188.93 -427893 -0)
(3988.76 -426986 -0)
(3789.35 -426123 -0)
(3590.66 -425304 -0)
(3392.64 -424529 -0)
(3195.26 -423798 -0)
(2998.48 -423111 -0)
(2802.26 -422467 -0)
(2606.56 -421867 -0)
(2411.35 -421310 -0)
(2216.58 -420797 -0)
(2022.23 -420326 -0)
(1828.25 -419899 -0)
(1634.61 -419515 -0)
(1441.27 -419174 -0)
(1248.19 -418876 -0)
(1055.36 -418620 -0)
(862.715 -418407 -0)
(670.241 -418237 -0)
(477.901 -418110 -0)
(285.661 -418025 -0)
(94.7808 -417984 -0)
(30922.2 -649498 -0)
(30435.8 -643963 -0)
(29903.1 -638499 -0)
(29382.3 -633123 -0)
(28874.5 -627841 -0)
(28376.8 -622652 -0)
(27887 -617552 -0)
(27404.5 -612540 -0)
(26929.2 -607615 -0)
(26461 -602775 -0)
(25999.8 -598019 -0)
(25545.4 -593347 -0)
(25097.6 -588755 -0)
(24656.3 -584245 -0)
(24221.2 -579814 -0)
(23792.3 -575461 -0)
(23369.3 -571185 -0)
(22952.2 -566985 -0)
(22540.8 -562860 -0)
(22134.9 -558809 -0)
(21734.5 -554831 -0)
(21339.4 -550926 -0)
(20949.4 -547091 -0)
(20564.5 -543326 -0)
(20184.5 -539631 -0)
(19809.2 -536005 -0)
(19438.7 -532445 -0)
(19072.7 -528953 -0)
(18711.2 -525526 -0)
(18354.1 -522165 -0)
(18001.2 -518868 -0)
(17652.4 -515634 -0)
(17307.7 -512464 -0)
(16966.9 -509355 -0)
(16629.9 -506308 -0)
(16296.7 -503322 -0)
(15967.1 -500396 -0)
(15641.1 -497529 -0)
(15318.6 -494721 -0)
(14999.4 -491971 -0)
(14683.4 -489279 -0)
(14370.7 -486643 -0)
(14061.1 -484064 -0)
(13754.5 -481541 -0)
(13450.8 -479074 -0)
(13150 -476661 -0)
(12852 -474302 -0)
(12556.7 -471997 -0)
(12264.1 -469746 -0)
(11974 -467547 -0)
(11686.4 -465401 -0)
(11401.2 -463307 -0)
(11118.3 -461264 -0)
(10837.8 -459272 -0)
(10559.4 -457331 -0)
(10283.2 -455440 -0)
(10009.1 -453600 -0)
(9736.99 -451808 -0)
(9466.85 -450066 -0)
(9198.61 -448373 -0)
(8932.21 -446728 -0)
(8667.58 -445131 -0)
(8404.68 -443583 -0)
(8143.44 -442081 -0)
(7883.8 -440627 -0)
(7625.72 -439220 -0)
(7369.12 -437860 -0)
(7113.97 -436546 -0)
(6860.2 -435278 -0)
(6607.76 -434056 -0)
(6356.6 -432880 -0)
(6106.66 -431749 -0)
(5857.9 -430664 -0)
(5610.26 -429623 -0)
(5363.69 -428628 -0)
(5118.15 -427677 -0)
(4873.57 -426770 -0)
(4629.93 -425908 -0)
(4387.15 -425090 -0)
(4145.2 -424316 -0)
(3904.03 -423586 -0)
(3663.59 -422899 -0)
(3423.84 -422256 -0)
(3184.72 -421657 -0)
(2946.2 -421101 -0)
(2708.22 -420588 -0)
(2470.75 -420118 -0)
(2233.73 -419691 -0)
(1997.12 -419307 -0)
(1760.89 -418967 -0)
(1524.98 -418669 -0)
(1289.35 -418413 -0)
(1053.97 -418201 -0)
(818.781 -418031 -0)
(583.752 -417904 -0)
(348.838 -417820 -0)
(115.702 -417778 -0)
(36549.7 -648915 -0)
(35925.5 -643383 -0)
(35314.4 -637936 -0)
(34705.7 -632573 -0)
(34106.4 -627301 -0)
(33517.8 -622120 -0)
(32939 -617029 -0)
(32369.2 -612025 -0)
(31808 -607108 -0)
(31255.2 -602276 -0)
(30710.6 -597528 -0)
(30174 -592863 -0)
(29645.2 -588279 -0)
(29124 -583775 -0)
(28610.2 -579351 -0)
(28103.7 -575005 -0)
(27604.3 -570735 -0)
(27111.7 -566542 -0)
(26625.8 -562423 -0)
(26146.5 -558378 -0)
(25673.6 -554406 -0)
(25207 -550506 -0)
(24746.4 -546677 -0)
(24291.8 -542918 -0)
(23843 -539229 -0)
(23399.8 -535607 -0)
(22962.2 -532053 -0)
(22530 -528565 -0)
(22103 -525144 -0)
(21681.2 -521787 -0)
(21264.4 -518494 -0)
(20852.5 -515265 -0)
(20445.3 -512099 -0)
(20042.8 -508995 -0)
(19644.8 -505952 -0)
(19251.2 -502969 -0)
(18861.9 -500047 -0)
(18476.8 -497184 -0)
(18095.8 -494380 -0)
(17718.8 -491633 -0)
(17345.6 -488945 -0)
(16976.3 -486313 -0)
(16610.5 -483737 -0)
(16248.4 -481217 -0)
(15889.7 -478753 -0)
(15534.4 -476343 -0)
(15182.4 -473987 -0)
(14833.6 -471685 -0)
(14487.9 -469437 -0)
(14145.2 -467241 -0)
(13805.5 -465097 -0)
(13468.6 -463005 -0)
(13134.5 -460965 -0)
(12803 -458976 -0)
(12474.2 -457037 -0)
(12148 -455149 -0)
(11824.1 -453310 -0)
(11502.7 -451521 -0)
(11183.6 -449781 -0)
(10866.8 -448090 -0)
(10552.1 -446447 -0)
(10239.5 -444852 -0)
(9928.88 -443305 -0)
(9620.28 -441806 -0)
(9313.56 -440353 -0)
(9008.68 -438948 -0)
(8705.56 -437589 -0)
(8404.14 -436277 -0)
(8104.35 -435010 -0)
(7806.13 -433790 -0)
(7509.43 -432615 -0)
(7214.16 -431486 -0)
(6920.29 -430402 -0)
(6627.74 -429362 -0)
(6336.45 -428368 -0)
(6046.37 -427418 -0)
(5757.44 -426513 -0)
(5469.6 -425652 -0)
(5182.79 -424834 -0)
(4896.95 -424061 -0)
(4612.04 -423332 -0)
(4327.98 -422646 -0)
(4044.74 -422004 -0)
(3762.25 -421405 -0)
(3480.46 -420850 -0)
(3199.31 -420337 -0)
(2918.76 -419868 -0)
(2638.74 -419442 -0)
(2359.22 -419059 -0)
(2080.13 -418718 -0)
(1801.42 -418421 -0)
(1523.05 -418166 -0)
(1244.97 -417954 -0)
(967.11 -417784 -0)
(689.438 -417657 -0)
(411.898 -417573 -0)
(136.577 -417531 -0)
(42162.4 -648264 -0)
(41414.9 -642722 -0)
(40713 -637282 -0)
(40016.5 -631932 -0)
(39327.8 -626672 -0)
(38649.6 -621501 -0)
(37982.2 -616419 -0)
(37325.2 -611425 -0)
(36678.2 -606517 -0)
(36041 -601695 -0)
(35413.2 -596956 -0)
(34794.6 -592299 -0)
(34185 -587724 -0)
(33584.2 -583228 -0)
(32991.9 -578812 -0)
(32408 -574474 -0)
(31832.2 -570212 -0)
(31264.3 -566026 -0)
(30704.2 -561914 -0)
(30151.6 -557877 -0)
(29606.4 -553912 -0)
(29068.4 -550018 -0)
(28537.4 -546196 -0)
(28013.3 -542443 -0)
(27495.8 -538759 -0)
(26984.9 -535144 -0)
(26480.4 -531596 -0)
(25982 -528114 -0)
(25489.7 -524698 -0)
(25003.4 -521346 -0)
(24522.8 -518059 -0)
(24047.8 -514835 -0)
(23578.3 -511674 -0)
(23114.2 -508575 -0)
(22655.3 -505536 -0)
(22201.4 -502559 -0)
(21752.6 -499641 -0)
(21308.5 -496782 -0)
(20869.2 -493982 -0)
(20434.4 -491240 -0)
(20004.1 -488555 -0)
(19578.2 -485927 -0)
(19156.4 -483356 -0)
(18738.8 -480840 -0)
(18325.2 -478379 -0)
(17915.5 -475973 -0)
(17509.6 -473621 -0)
(17107.3 -471322 -0)
(16708.7 -469077 -0)
(16313.5 -466884 -0)
(15921.7 -464743 -0)
(15533.2 -462655 -0)
(15147.9 -460617 -0)
(14765.7 -458631 -0)
(14386.5 -456695 -0)
(14010.3 -454809 -0)
(13636.8 -452973 -0)
(13266.2 -451187 -0)
(12898.2 -449449 -0)
(12532.7 -447760 -0)
(12169.8 -446119 -0)
(11809.3 -444527 -0)
(11451.1 -442982 -0)
(11095.2 -441485 -0)
(10741.5 -440034 -0)
(10389.9 -438631 -0)
(10040.3 -437274 -0)
(9692.67 -435963 -0)
(9346.93 -434699 -0)
(9003 -433480 -0)
(8660.8 -432307 -0)
(8320.27 -431179 -0)
(7981.34 -430096 -0)
(7643.93 -429058 -0)
(7307.98 -428065 -0)
(6973.42 -427117 -0)
(6640.19 -426213 -0)
(6308.21 -425353 -0)
(5977.41 -424537 -0)
(5647.75 -423764 -0)
(5319.14 -423036 -0)
(4991.52 -422351 -0)
(4664.84 -421710 -0)
(4339.02 -421112 -0)
(4014.02 -420557 -0)
(3689.75 -420046 -0)
(3366.17 -419577 -0)
(3043.22 -419152 -0)
(2720.82 -418769 -0)
(2398.93 -418429 -0)
(2077.48 -418132 -0)
(1756.42 -417877 -0)
(1435.68 -417665 -0)
(1115.21 -417496 -0)
(794.943 -417369 -0)
(474.83 -417285 -0)
(157.402 -417244 -0)
(47744.4 -647518 -0)
(46908.3 -641975 -0)
(46104.5 -636540 -0)
(45315.7 -631201 -0)
(44537.3 -625953 -0)
(43770.2 -620794 -0)
(43014.8 -615724 -0)
(42271 -610741 -0)
(41538.5 -605844 -0)
(40817 -601032 -0)
(40106.3 -596303 -0)
(39406 -591656 -0)
(38715.8 -587090 -0)
(38035.6 -582604 -0)
(37365.1 -578197 -0)
(36704 -573868 -0)
(36052.1 -569615 -0)
(35409.1 -565437 -0)
(34774.9 -561334 -0)
(34149.3 -557304 -0)
(33532 -553347 -0)
(32922.8 -549461 -0)
(32321.6 -545646 -0)
(31728.1 -541901 -0)
(31142.2 -538224 -0)
(30563.6 -534616 -0)
(29992.3 -531074 -0)
(29428 -527599 -0)
(28870.5 -524189 -0)
(28319.8 -520844 -0)
(27775.5 -517563 -0)
(27237.7 -514345 -0)
(26706 -511189 -0)
(26180.4 -508095 -0)
(25660.7 -505063 -0)
(25146.7 -502090 -0)
(24638.4 -499178 -0)
(24135.5 -496324 -0)
(23638 -493529 -0)
(23145.6 -490792 -0)
(22658.3 -488111 -0)
(22175.9 -485488 -0)
(21698.2 -482921 -0)
(21225.3 -480409 -0)
(20756.8 -477952 -0)
(20292.8 -475550 -0)
(19833.1 -473202 -0)
(19377.5 -470907 -0)
(18926 -468666 -0)
(18478.4 -466477 -0)
(18034.7 -464340 -0)
(17594.7 -462254 -0)
(17158.3 -460220 -0)
(16725.4 -458237 -0)
(16295.9 -456305 -0)
(15869.7 -454422 -0)
(15446.8 -452589 -0)
(15026.9 -450805 -0)
(14610.1 -449070 -0)
(14196.2 -447384 -0)
(13785.1 -445746 -0)
(13376.8 -444156 -0)
(12971.1 -442614 -0)
(12568 -441119 -0)
(12167.3 -439671 -0)
(11769.1 -438269 -0)
(11373.1 -436915 -0)
(10979.3 -435606 -0)
(10587.7 -434343 -0)
(10198.1 -433126 -0)
(9810.5 -431955 -0)
(9424.77 -430829 -0)
(9040.84 -429748 -0)
(8658.65 -428712 -0)
(8278.1 -427720 -0)
(7899.13 -426773 -0)
(7521.65 -425870 -0)
(7145.59 -425012 -0)
(6770.88 -424197 -0)
(6397.44 -423426 -0)
(6025.2 -422699 -0)
(5654.08 -422015 -0)
(5284.02 -421375 -0)
(4914.94 -420778 -0)
(4546.78 -420224 -0)
(4179.46 -419713 -0)
(3812.91 -419245 -0)
(3447.07 -418820 -0)
(3081.87 -418438 -0)
(2717.23 -418099 -0)
(2353.1 -417802 -0)
(1989.4 -417548 -0)
(1626.08 -417337 -0)
(1263.05 -417168 -0)
(900.257 -417041 -0)
(537.633 -416957 -0)
(178.177 -416916 -0)
(53302.3 -646657 -0)
(52392.7 -641133 -0)
(51487.5 -635710 -0)
(50603.9 -630382 -0)
(49734.5 -625146 -0)
(48878.5 -620001 -0)
(48035.5 -614943 -0)
(47205.2 -609973 -0)
(46387.6 -605088 -0)
(45582.2 -600287 -0)
(44788.8 -595570 -0)
(44007 -590934 -0)
(43236.6 -586379 -0)
(42477.2 -581904 -0)
(41728.7 -577507 -0)
(40990.6 -573187 -0)
(40262.8 -568944 -0)
(39545 -564776 -0)
(38837 -560682 -0)
(38138.5 -556661 -0)
(37449.3 -552713 -0)
(36769.2 -548836 -0)
(36097.9 -545029 -0)
(35435.3 -541292 -0)
(34781.1 -537623 -0)
(34135.1 -534022 -0)
(33497.2 -530488 -0)
(32867.1 -527020 -0)
(32244.6 -523618 -0)
(31629.6 -520280 -0)
(31021.9 -517005 -0)
(30421.3 -513794 -0)
(29827.7 -510645 -0)
(29240.7 -507557 -0)
(28660.4 -504531 -0)
(28086.5 -501564 -0)
(27518.8 -498657 -0)
(26957.2 -495809 -0)
(26401.6 -493020 -0)
(25851.7 -490288 -0)
(25307.5 -487613 -0)
(24768.8 -484995 -0)
(24235.4 -482432 -0)
(23707.2 -479926 -0)
(23184.1 -477474 -0)
(22665.8 -475076 -0)
(22152.4 -472732 -0)
(21643.6 -470442 -0)
(21139.4 -468204 -0)
(20639.5 -466019 -0)
(20143.9 -463887 -0)
(19652.5 -461805 -0)
(19165.1 -459775 -0)
(18681.7 -457795 -0)
(18202 -455866 -0)
(17726 -453987 -0)
(17253.6 -452157 -0)
(16784.7 -450377 -0)
(16319.2 -448645 -0)
(15856.9 -446962 -0)
(15397.8 -445327 -0)
(14941.7 -443740 -0)
(14488.6 -442200 -0)
(14038.3 -440707 -0)
(13590.8 -439262 -0)
(13145.9 -437863 -0)
(12703.7 -436511 -0)
(12263.8 -435205 -0)
(11826.4 -433944 -0)
(11391.3 -432729 -0)
(10958.3 -431560 -0)
(10527.4 -430436 -0)
(10098.6 -429357 -0)
(9671.69 -428322 -0)
(9246.62 -427333 -0)
(8823.31 -426387 -0)
(8401.66 -425486 -0)
(7981.59 -424629 -0)
(7563.03 -423815 -0)
(7145.89 -423046 -0)
(6730.09 -422320 -0)
(6315.54 -421637 -0)
(5902.17 -420998 -0)
(5489.9 -420402 -0)
(5078.65 -419849 -0)
(4668.34 -419339 -0)
(4258.89 -418873 -0)
(3850.24 -418448 -0)
(3442.3 -418067 -0)
(3034.99 -417728 -0)
(2628.24 -417432 -0)
(2221.98 -417178 -0)
(1816.14 -416967 -0)
(1410.62 -416799 -0)
(1005.37 -416672 -0)
(600.308 -416589 -0)
(198.906 -416547 -0)
(58850.5 -645691 -0)
(57855.1 -640192 -0)
(56855.6 -634787 -0)
(55879.3 -629475 -0)
(54918.7 -624253 -0)
(53973.4 -619121 -0)
(53042.9 -614078 -0)
(52126.6 -609121 -0)
(51224.1 -604249 -0)
(50335.2 -599461 -0)
(49459.4 -594757 -0)
(48596.4 -590133 -0)
(47746 -585590 -0)
(46907.8 -581127 -0)
(46081.5 -576741 -0)
(45266.8 -572433 -0)
(44463.4 -568200 -0)
(43671.1 -564043 -0)
(42889.5 -559959 -0)
(42118.4 -555948 -0)
(41357.5 -552010 -0)
(40606.7 -548142 -0)
(39865.6 -544345 -0)
(39134 -540616 -0)
(38411.7 -536957 -0)
(37698.6 -533364 -0)
(36994.2 -529839 -0)
(36298.6 -526379 -0)
(35611.3 -522984 -0)
(34932.3 -519654 -0)
(34261.3 -516387 -0)
(33598.1 -513183 -0)
(32942.6 -510041 -0)
(32294.5 -506960 -0)
(31653.7 -503940 -0)
(31020 -500981 -0)
(30393.2 -498080 -0)
(29773 -495239 -0)
(29159.5 -492455 -0)
(28552.3 -489729 -0)
(27951.3 -487060 -0)
(27356.4 -484447 -0)
(26767.4 -481891 -0)
(26184.1 -479389 -0)
(25606.4 -476942 -0)
(25034.1 -474550 -0)
(24467.1 -472211 -0)
(23905.3 -469926 -0)
(23348.4 -467693 -0)
(22796.4 -465512 -0)
(22249.1 -463384 -0)
(21706.3 -461307 -0)
(21168.1 -459281 -0)
(20634.1 -457305 -0)
(20104.4 -455380 -0)
(19578.7 -453504 -0)
(19057 -451678 -0)
(18539.1 -449901 -0)
(18025 -448173 -0)
(17514.4 -446493 -0)
(17007.3 -444862 -0)
(16503.6 -443278 -0)
(16003.2 -441741 -0)
(15505.9 -440252 -0)
(15011.6 -438809 -0)
(14520.3 -437413 -0)
(14031.8 -436063 -0)
(13546 -434759 -0)
(13062.8 -433501 -0)
(12582.2 -432289 -0)
(12104 -431122 -0)
(11628.1 -430000 -0)
(11154.4 -428923 -0)
(10682.9 -427891 -0)
(10213.4 -426903 -0)
(9745.78 -425959 -0)
(9280.05 -425060 -0)
(8816.06 -424204 -0)
(8353.73 -423392 -0)
(7892.96 -422624 -0)
(7433.67 -421900 -0)
(6975.77 -421219 -0)
(6519.18 -420581 -0)
(6063.79 -419986 -0)
(5609.53 -419434 -0)
(5156.31 -418925 -0)
(4704.05 -418459 -0)
(4252.66 -418036 -0)
(3802.05 -417655 -0)
(3352.15 -417317 -0)
(2902.87 -417021 -0)
(2454.13 -416768 -0)
(2005.84 -416557 -0)
(1557.92 -416389 -0)
(1110.29 -416263 -0)
(662.869 -416179 -0)
(219.599 -416138 -0)
(64390.5 -644641 -0)
(63296.4 -639158 -0)
(62204.6 -633772 -0)
(61138.2 -628478 -0)
(60088.1 -623273 -0)
(59053.9 -618156 -0)
(58036 -613128 -0)
(57033.9 -608186 -0)
(56046.9 -603328 -0)
(55074.7 -598555 -0)
(54116.9 -593864 -0)
(53173.2 -589254 -0)
(52243.1 -584724 -0)
(51326.4 -580274 -0)
(50422.6 -575901 -0)
(49531.6 -571604 -0)
(48652.8 -567384 -0)
(47786.2 -563238 -0)
(46931.3 -559165 -0)
(46087.9 -555166 -0)
(45255.6 -551238 -0)
(44434.3 -547380 -0)
(43623.6 -543593 -0)
(42823.4 -539875 -0)
(42033.3 -536225 -0)
(41253.1 -532642 -0)
(40482.6 -529125 -0)
(39721.6 -525674 -0)
(38969.8 -522288 -0)
(38226.9 -518966 -0)
(37492.8 -515708 -0)
(36767.3 -512512 -0)
(36050.2 -509378 -0)
(35341.1 -506305 -0)
(34640 -503292 -0)
(33946.7 -500340 -0)
(33260.8 -497446 -0)
(32582.4 -494612 -0)
(31911 -491835 -0)
(31246.7 -489116 -0)
(30589.2 -486453 -0)
(29938.2 -483847 -0)
(29293.7 -481296 -0)
(28655.5 -478800 -0)
(28023.4 -476359 -0)
(27397.2 -473972 -0)
(26776.7 -471639 -0)
(26161.9 -469359 -0)
(25552.6 -467131 -0)
(24948.5 -464955 -0)
(24349.6 -462832 -0)
(23755.7 -460759 -0)
(23166.7 -458738 -0)
(22582.4 -456767 -0)
(22002.8 -454846 -0)
(21427.5 -452975 -0)
(20856.6 -451153 -0)
(20289.9 -449380 -0)
(19727.2 -447655 -0)
(19168.5 -445979 -0)
(18613.5 -444351 -0)
(18062.3 -442770 -0)
(17514.6 -441237 -0)
(16970.4 -439751 -0)
(16429.5 -438311 -0)
(15891.7 -436918 -0)
(15357.1 -435571 -0)
(14825.5 -434270 -0)
(14296.7 -433015 -0)
(13770.7 -431805 -0)
(13247.3 -430641 -0)
(12726.5 -429521 -0)
(12208.1 -428447 -0)
(11692 -427416 -0)
(11178.1 -426431 -0)
(10666.4 -425489 -0)
(10156.7 -424591 -0)
(9648.83 -423738 -0)
(9142.82 -422928 -0)
(8638.52 -422161 -0)
(8135.83 -421438 -0)
(7634.67 -420758 -0)
(7134.93 -420122 -0)
(6636.51 -419528 -0)
(6139.33 -418978 -0)
(5643.29 -418470 -0)
(5148.3 -418005 -0)
(4654.26 -417582 -0)
(4161.09 -417202 -0)
(3668.68 -416865 -0)
(3176.96 -416570 -0)
(2685.82 -416317 -0)
(2195.18 -416107 -0)
(1704.95 -415939 -0)
(1215.03 -415813 -0)
(725.342 -415730 -0)
(240.271 -415688 -0)
(69910.4 -643509 -0)
(68724.2 -638040 -0)
(67536.1 -632668 -0)
(66378.6 -627392 -0)
(65240.3 -622205 -0)
(64118.4 -617106 -0)
(63013.6 -612094 -0)
(61925.9 -607168 -0)
(60854.8 -602326 -0)
(59799.7 -597568 -0)
(58760.3 -592892 -0)
(57736 -588297 -0)
(56726.6 -583781 -0)
(55731.7 -579344 -0)
(54750.8 -574985 -0)
(53783.7 -570702 -0)
(52830 -566494 -0)
(51889.4 -562361 -0)
(50961.5 -558301 -0)
(50046 -554313 -0)
(49142.7 -550397 -0)
(48251.2 -546551 -0)
(47371.2 -542774 -0)
(46502.6 -539067 -0)
(45644.9 -535427 -0)
(44798 -531854 -0)
(43961.6 -528348 -0)
(43135.4 -524907 -0)
(42319.2 -521530 -0)
(41512.8 -518217 -0)
(40715.9 -514968 -0)
(39928.2 -511781 -0)
(39149.6 -508655 -0)
(38379.8 -505591 -0)
(37618.6 -502586 -0)
(36865.8 -499642 -0)
(36121.2 -496756 -0)
(35384.6 -493929 -0)
(34655.7 -491159 -0)
(33934.3 -488447 -0)
(33220.4 -485791 -0)
(32513.6 -483192 -0)
(31813.8 -480648 -0)
(31120.8 -478158 -0)
(30434.4 -475724 -0)
(29754.4 -473343 -0)
(29080.7 -471015 -0)
(28413.1 -468741 -0)
(27751.4 -466519 -0)
(27095.5 -464349 -0)
(26445.2 -462230 -0)
(25800.3 -460163 -0)
(25160.7 -458146 -0)
(24526.2 -456180 -0)
(23896.7 -454264 -0)
(23272 -452397 -0)
(22652 -450580 -0)
(22036.5 -448811 -0)
(21425.5 -447091 -0)
(20818.7 -445419 -0)
(20216.1 -443794 -0)
(19617.4 -442218 -0)
(19022.6 -440688 -0)
(18431.6 -439205 -0)
(17844.1 -437769 -0)
(17260.1 -436379 -0)
(16679.5 -435036 -0)
(16102.1 -433738 -0)
(15527.9 -432485 -0)
(14956.6 -431279 -0)
(14388.1 -430117 -0)
(13822.5 -429000 -0)
(13259.4 -427927 -0)
(12698.9 -426900 -0)
(12140.8 -425916 -0)
(11585 -424977 -0)
(11031.3 -424081 -0)
(10479.8 -423229 -0)
(9930.16 -422421 -0)
(9382.42 -421657 -0)
(8836.44 -420935 -0)
(8292.11 -420257 -0)
(7749.32 -419622 -0)
(7207.98 -419030 -0)
(6667.98 -418480 -0)
(6129.21 -417974 -0)
(5591.59 -417510 -0)
(5055 -417088 -0)
(4519.35 -416709 -0)
(3984.54 -416372 -0)
(3450.47 -416078 -0)
(2917.04 -415826 -0)
(2384.16 -415616 -0)
(1851.71 -415448 -0)
(1319.61 -415323 -0)
(787.763 -415239 -0)
(260.943 -415198 -0)
(75403.1 -642276 -0)
(74137.3 -636835 -0)
(72853 -631479 -0)
(71601.3 -626219 -0)
(70374 -621050 -0)
(69165.2 -615970 -0)
(67974.3 -610976 -0)
(66801.5 -606067 -0)
(65646.5 -601242 -0)
(64508.9 -596501 -0)
(63388.2 -591841 -0)
(62283.8 -587261 -0)
(61195.5 -582761 -0)
(60122.7 -578339 -0)
(59065.1 -573994 -0)
(58022.3 -569726 -0)
(56994 -565532 -0)
(55979.7 -561412 -0)
(54979.1 -557365 -0)
(53991.9 -553390 -0)
(53017.8 -549486 -0)
(52056.4 -545653 -0)
(51107.5 -541889 -0)
(50170.7 -538193 -0)
(49245.8 -534564 -0)
(48332.4 -531003 -0)
(47430.3 -527507 -0)
(46539.3 -524076 -0)
(45659 -520710 -0)
(44789.2 -517407 -0)
(43929.6 -514167 -0)
(43080.1 -510990 -0)
(42240.3 -507873 -0)
(41410 -504818 -0)
(40588.9 -501822 -0)
(39776.9 -498886 -0)
(38973.7 -496009 -0)
(38179.1 -493190 -0)
(37392.8 -490428 -0)
(36614.7 -487724 -0)
(35844.5 -485076 -0)
(35082 -482483 -0)
(34327.1 -479946 -0)
(33579.5 -477464 -0)
(32839 -475036 -0)
(32105.5 -472661 -0)
(31378.7 -470340 -0)
(30658.5 -468072 -0)
(29944.6 -465856 -0)
(29236.9 -463692 -0)
(28535.3 -461579 -0)
(27839.6 -459518 -0)
(27149.5 -457506 -0)
(26464.9 -455545 -0)
(25785.8 -453634 -0)
(25111.8 -451772 -0)
(24442.9 -449960 -0)
(23778.8 -448195 -0)
(23119.6 -446480 -0)
(22464.9 -444812 -0)
(21814.6 -443192 -0)
(21168.7 -441619 -0)
(20526.9 -440093 -0)
(19889.2 -438615 -0)
(19255.3 -437182 -0)
(18625.2 -435796 -0)
(17998.7 -434456 -0)
(17375.7 -433161 -0)
(16756 -431912 -0)
(16139.5 -430708 -0)
(15526.2 -429549 -0)
(14915.8 -428435 -0)
(14308.2 -427365 -0)
(13703.3 -426340 -0)
(13101.1 -425359 -0)
(12501.3 -424422 -0)
(11903.9 -423529 -0)
(11308.7 -422679 -0)
(10715.6 -421873 -0)
(10124.5 -421110 -0)
(9535.37 -420391 -0)
(8947.98 -419714 -0)
(8362.26 -419081 -0)
(7778.09 -418490 -0)
(7195.38 -417942 -0)
(6614 -417436 -0)
(6033.85 -416973 -0)
(5454.82 -416553 -0)
(4876.81 -416175 -0)
(4299.71 -415839 -0)
(3723.4 -415545 -0)
(3147.79 -415294 -0)
(2572.77 -415084 -0)
(1998.23 -414917 -0)
(1424.07 -414791 -0)
(850.176 -414708 -0)
(281.642 -414667 -0)
(80877.9 -640933 -0)
(79522.1 -635534 -0)
(78152.8 -630202 -0)
(76806.9 -624960 -0)
(75489 -619810 -0)
(74193.1 -614749 -0)
(72916.6 -609774 -0)
(71659.3 -604883 -0)
(70421 -600077 -0)
(69201.3 -595353 -0)
(67999.6 -590710 -0)
(66815.6 -586148 -0)
(65648.6 -581664 -0)
(64498.4 -577258 -0)
(63364.4 -572929 -0)
(62246.3 -568675 -0)
(61143.7 -564497 -0)
(60056.1 -560391 -0)
(58983.2 -556359 -0)
(57924.6 -552398 -0)
(56880.1 -548507 -0)
(55849.1 -544687 -0)
(54831.5 -540935 -0)
(53826.9 -537252 -0)
(52835 -533636 -0)
(51855.4 -530086 -0)
(50888 -526602 -0)
(49932.4 -523182 -0)
(48988.2 -519827 -0)
(48055.4 -516535 -0)
(47133.4 -513306 -0)
(46222.2 -510138 -0)
(45321.5 -507032 -0)
(44430.9 -503986 -0)
(43550.2 -501000 -0)
(42679.2 -498073 -0)
(41817.6 -495205 -0)
(40965.2 -492394 -0)
(40121.8 -489641 -0)
(39287.1 -486945 -0)
(38460.9 -484305 -0)
(37643 -481720 -0)
(36833.1 -479191 -0)
(36031.1 -476716 -0)
(35236.8 -474295 -0)
(34449.8 -471928 -0)
(33670.1 -469614 -0)
(32897.4 -467352 -0)