/*--------------------------------*- C++ -*----------------------------------*\
  =========                 |
  \\      /  F ield         | OpenFOAM: The Open Source CFD Toolbox
   \\    /   O peration     | Website:  https://openfoam.org
    \\  /    A nd           | Version:  7
     \\/     M anipulation  |
\*---------------------------------------------------------------------------*/
FoamFile
{
    version     2.0;
    format      ascii;
    class       volScalarField;
    location    "7e-13";
    object      ni;
}
// * * * * * * * * * * * * * * * * * * * * * * * * * * * * * * * * * * * * * //

dimensions      [0 -3 0 0 0 0 0];

internalField   nonuniform List<scalar> 
14934
(
1.07729e+13
1.06853e+13
1.06208e+13
1.05707e+13
1.05303e+13
1.04967e+13
1.04683e+13
1.04437e+13
1.04222e+13
1.04032e+13
1.03861e+13
1.03708e+13
1.03568e+13
1.03441e+13
1.03324e+13
1.03215e+13
1.03115e+13
1.03021e+13
1.02934e+13
1.02852e+13
1.02774e+13
1.02702e+13
1.02633e+13
1.02567e+13
1.02505e+13
1.02446e+13
1.0239e+13
1.02336e+13
1.02285e+13
1.02236e+13
1.02188e+13
1.02143e+13
1.02099e+13
1.02057e+13
1.02017e+13
1.01978e+13
1.0194e+13
1.01904e+13
1.01869e+13
1.01835e+13
1.01802e+13
1.0177e+13
1.01739e+13
1.01709e+13
1.01679e+13
1.01651e+13
1.01623e+13
1.01596e+13
1.0157e+13
1.01545e+13
1.0152e+13
1.01496e+13
1.01472e+13
1.01449e+13
1.01427e+13
1.01405e+13
1.01384e+13
1.01363e+13
1.01342e+13
1.01322e+13
1.01303e+13
1.01284e+13
1.01265e+13
1.01247e+13
1.01229e+13
1.01212e+13
1.01195e+13
1.01178e+13
1.01161e+13
1.01145e+13
1.0113e+13
1.01114e+13
1.01099e+13
1.01084e+13
1.0107e+13
1.01055e+13
1.01041e+13
1.01028e+13
1.01014e+13
1.01001e+13
1.00988e+13
1.00975e+13
1.00963e+13
1.0095e+13
1.00938e+13
1.00926e+13
1.00915e+13
1.00903e+13
1.00892e+13
1.00881e+13
1.0087e+13
1.00859e+13
1.00849e+13
1.00838e+13
1.00828e+13
1.00818e+13
1.00808e+13
1.07211e+13
1.06505e+13
1.05952e+13
1.05506e+13
1.05138e+13
1.04828e+13
1.04562e+13
1.04331e+13
1.04128e+13
1.03947e+13
1.03784e+13
1.03637e+13
1.03503e+13
1.03381e+13
1.03268e+13
1.03163e+13
1.03066e+13
1.02975e+13
1.0289e+13
1.02811e+13
1.02736e+13
1.02665e+13
1.02598e+13
1.02534e+13
1.02474e+13
1.02416e+13
1.02361e+13
1.02309e+13
1.02258e+13
1.0221e+13
1.02164e+13
1.0212e+13
1.02077e+13
1.02036e+13
1.01996e+13
1.01958e+13
1.01921e+13
1.01885e+13
1.01851e+13
1.01817e+13
1.01785e+13
1.01754e+13
1.01723e+13
1.01693e+13
1.01665e+13
1.01637e+13
1.0161e+13
1.01583e+13
1.01557e+13
1.01532e+13
1.01508e+13
1.01484e+13
1.01461e+13
1.01438e+13
1.01416e+13
1.01395e+13
1.01374e+13
1.01353e+13
1.01333e+13
1.01313e+13
1.01294e+13
1.01275e+13
1.01257e+13
1.01239e+13
1.01221e+13
1.01204e+13
1.01187e+13
1.01171e+13
1.01155e+13
1.01139e+13
1.01123e+13
1.01108e+13
1.01093e+13
1.01078e+13
1.01064e+13
1.0105e+13
1.01036e+13
1.01022e+13
1.01009e+13
1.00996e+13
1.00983e+13
1.0097e+13
1.00958e+13
1.00946e+13
1.00934e+13
1.00922e+13
1.00911e+13
1.00899e+13
1.00888e+13
1.00877e+13
1.00866e+13
1.00856e+13
1.00845e+13
1.00835e+13
1.00825e+13
1.00815e+13
1.00805e+13
1.06609e+13
1.06084e+13
1.0564e+13
1.05264e+13
1.04942e+13
1.04665e+13
1.04424e+13
1.04211e+13
1.04022e+13
1.03853e+13
1.037e+13
1.0356e+13
1.03433e+13
1.03316e+13
1.03208e+13
1.03107e+13
1.03014e+13
1.02927e+13
1.02845e+13
1.02768e+13
1.02695e+13
1.02626e+13
1.02561e+13
1.02499e+13
1.02441e+13
1.02385e+13
1.02331e+13
1.0228e+13
1.02231e+13
1.02184e+13
1.02139e+13
1.02096e+13
1.02054e+13
1.02014e+13
1.01975e+13
1.01937e+13
1.01901e+13
1.01866e+13
1.01832e+13
1.018e+13
1.01768e+13
1.01737e+13
1.01707e+13
1.01678e+13
1.0165e+13
1.01623e+13
1.01596e+13
1.0157e+13
1.01545e+13
1.0152e+13
1.01496e+13
1.01473e+13
1.0145e+13
1.01427e+13
1.01406e+13
1.01384e+13
1.01364e+13
1.01343e+13
1.01324e+13
1.01304e+13
1.01285e+13
1.01267e+13
1.01249e+13
1.01231e+13
1.01214e+13
1.01197e+13
1.0118e+13
1.01164e+13
1.01148e+13
1.01132e+13
1.01117e+13
1.01101e+13
1.01087e+13
1.01072e+13
1.01058e+13
1.01044e+13
1.0103e+13
1.01017e+13
1.01004e+13
1.00991e+13
1.00978e+13
1.00966e+13
1.00953e+13
1.00941e+13
1.00929e+13
1.00918e+13
1.00906e+13
1.00895e+13
1.00884e+13
1.00873e+13
1.00863e+13
1.00852e+13
1.00842e+13
1.00832e+13
1.00822e+13
1.00812e+13
1.00802e+13
1.06029e+13
1.05651e+13
1.05307e+13
1.05001e+13
1.04729e+13
1.04487e+13
1.04273e+13
1.04081e+13
1.03908e+13
1.03751e+13
1.03609e+13
1.03478e+13
1.03358e+13
1.03247e+13
1.03145e+13
1.03049e+13
1.0296e+13
1.02876e+13
1.02797e+13
1.02723e+13
1.02653e+13
1.02587e+13
1.02524e+13
1.02464e+13
1.02407e+13
1.02352e+13
1.023e+13
1.02251e+13
1.02203e+13
1.02157e+13
1.02113e+13
1.02071e+13
1.0203e+13
1.01991e+13
1.01953e+13
1.01917e+13
1.01881e+13
1.01847e+13
1.01814e+13
1.01782e+13
1.01751e+13
1.01721e+13
1.01691e+13
1.01663e+13
1.01635e+13
1.01608e+13
1.01582e+13
1.01556e+13
1.01532e+13
1.01507e+13
1.01484e+13
1.01461e+13
1.01438e+13
1.01416e+13
1.01395e+13
1.01374e+13
1.01354e+13
1.01334e+13
1.01314e+13
1.01295e+13
1.01276e+13
1.01258e+13
1.0124e+13
1.01223e+13
1.01206e+13
1.01189e+13
1.01173e+13
1.01156e+13
1.01141e+13
1.01125e+13
1.0111e+13
1.01095e+13
1.01081e+13
1.01066e+13
1.01052e+13
1.01038e+13
1.01025e+13
1.01012e+13
1.00999e+13
1.00986e+13
1.00973e+13
1.00961e+13
1.00949e+13
1.00937e+13
1.00925e+13
1.00914e+13
1.00902e+13
1.00891e+13
1.0088e+13
1.00869e+13
1.00859e+13
1.00848e+13
1.00838e+13
1.00828e+13
1.00818e+13
1.00809e+13
1.00799e+13
1.05509e+13
1.05239e+13
1.04978e+13
1.04733e+13
1.04507e+13
1.04301e+13
1.04114e+13
1.03943e+13
1.03787e+13
1.03644e+13
1.03513e+13
1.03392e+13
1.0328e+13
1.03176e+13
1.03079e+13
1.02988e+13
1.02903e+13
1.02823e+13
1.02748e+13
1.02677e+13
1.02609e+13
1.02546e+13
1.02485e+13
1.02427e+13
1.02372e+13
1.02319e+13
1.02269e+13
1.02221e+13
1.02175e+13
1.0213e+13
1.02087e+13
1.02046e+13
1.02006e+13
1.01968e+13
1.01931e+13
1.01896e+13
1.01861e+13
1.01828e+13
1.01795e+13
1.01764e+13
1.01733e+13
1.01704e+13
1.01675e+13
1.01647e+13
1.0162e+13
1.01594e+13
1.01568e+13
1.01543e+13
1.01518e+13
1.01495e+13
1.01471e+13
1.01449e+13
1.01427e+13
1.01405e+13
1.01384e+13
1.01364e+13
1.01344e+13
1.01324e+13
1.01305e+13
1.01286e+13
1.01268e+13
1.0125e+13
1.01232e+13
1.01215e+13
1.01198e+13
1.01181e+13
1.01165e+13
1.01149e+13
1.01134e+13
1.01118e+13
1.01103e+13
1.01089e+13
1.01074e+13
1.0106e+13
1.01046e+13
1.01033e+13
1.01019e+13
1.01006e+13
1.00993e+13
1.00981e+13
1.00968e+13
1.00956e+13
1.00944e+13
1.00932e+13
1.00921e+13
1.00909e+13
1.00898e+13
1.00887e+13
1.00876e+13
1.00866e+13
1.00855e+13
1.00845e+13
1.00835e+13
1.00825e+13
1.00815e+13
1.00805e+13
1.00796e+13
1.05056e+13
1.04863e+13
1.04666e+13
1.04472e+13
1.04288e+13
1.04114e+13
1.03952e+13
1.03802e+13
1.03663e+13
1.03534e+13
1.03414e+13
1.03303e+13
1.03199e+13
1.03101e+13
1.0301e+13
1.02925e+13
1.02845e+13
1.02769e+13
1.02697e+13
1.02629e+13
1.02565e+13
1.02504e+13
1.02445e+13
1.0239e+13
1.02337e+13
1.02286e+13
1.02237e+13
1.0219e+13
1.02145e+13
1.02102e+13
1.02061e+13
1.02021e+13
1.01982e+13
1.01945e+13
1.01909e+13
1.01874e+13
1.0184e+13
1.01808e+13
1.01776e+13
1.01745e+13
1.01716e+13
1.01687e+13
1.01659e+13
1.01631e+13
1.01605e+13
1.01579e+13
1.01554e+13
1.01529e+13
1.01505e+13
1.01482e+13
1.01459e+13
1.01437e+13
1.01415e+13
1.01394e+13
1.01373e+13
1.01353e+13
1.01333e+13
1.01314e+13
1.01295e+13
1.01277e+13
1.01259e+13
1.01241e+13
1.01223e+13
1.01206e+13
1.0119e+13
1.01174e+13
1.01158e+13
1.01142e+13
1.01127e+13
1.01111e+13
1.01097e+13
1.01082e+13
1.01068e+13
1.01054e+13
1.0104e+13
1.01027e+13
1.01014e+13
1.01001e+13
1.00988e+13
1.00975e+13
1.00963e+13
1.00951e+13
1.00939e+13
1.00928e+13
1.00916e+13
1.00905e+13
1.00894e+13
1.00883e+13
1.00872e+13
1.00862e+13
1.00851e+13
1.00841e+13
1.00831e+13
1.00821e+13
1.00812e+13
1.00802e+13
1.00793e+13
1.04666e+13
1.04527e+13
1.04377e+13
1.04225e+13
1.04075e+13
1.0393e+13
1.03792e+13
1.03661e+13
1.03538e+13
1.03422e+13
1.03314e+13
1.03212e+13
1.03116e+13
1.03026e+13
1.02941e+13
1.02861e+13
1.02785e+13
1.02713e+13
1.02645e+13
1.02581e+13
1.02519e+13
1.02461e+13
1.02405e+13
1.02352e+13
1.023e+13
1.02251e+13
1.02204e+13
1.02159e+13
1.02116e+13
1.02074e+13
1.02034e+13
1.01995e+13
1.01958e+13
1.01921e+13
1.01886e+13
1.01852e+13
1.0182e+13
1.01788e+13
1.01757e+13
1.01727e+13
1.01698e+13
1.01669e+13
1.01642e+13
1.01615e+13
1.01589e+13
1.01564e+13
1.01539e+13
1.01515e+13
1.01492e+13
1.01469e+13
1.01446e+13
1.01425e+13
1.01403e+13
1.01383e+13
1.01362e+13
1.01342e+13
1.01323e+13
1.01304e+13
1.01285e+13
1.01267e+13
1.01249e+13
1.01232e+13
1.01215e+13
1.01198e+13
1.01182e+13
1.01166e+13
1.0115e+13
1.01135e+13
1.01119e+13
1.01105e+13
1.0109e+13
1.01076e+13
1.01062e+13
1.01048e+13
1.01034e+13
1.01021e+13
1.01008e+13
1.00995e+13
1.00983e+13
1.0097e+13
1.00958e+13
1.00946e+13
1.00934e+13
1.00923e+13
1.00912e+13
1.009e+13
1.0089e+13
1.00879e+13
1.00868e+13
1.00858e+13
1.00847e+13
1.00837e+13
1.00827e+13
1.00818e+13
1.00808e+13
1.00799e+13
1.00789e+13
1.0433e+13
1.04229e+13
1.04115e+13
1.03995e+13
1.03873e+13
1.03752e+13
1.03635e+13
1.03522e+13
1.03413e+13
1.0331e+13
1.03213e+13
1.0312e+13
1.03032e+13
1.02949e+13
1.0287e+13
1.02796e+13
1.02725e+13
1.02657e+13
1.02593e+13
1.02532e+13
1.02473e+13
1.02417e+13
1.02364e+13
1.02313e+13
1.02264e+13
1.02217e+13
1.02172e+13
1.02128e+13
1.02086e+13
1.02046e+13
1.02007e+13
1.01969e+13
1.01933e+13
1.01897e+13
1.01863e+13
1.0183e+13
1.01798e+13
1.01767e+13
1.01737e+13
1.01708e+13
1.0168e+13
1.01652e+13
1.01625e+13
1.01599e+13
1.01574e+13
1.01549e+13
1.01525e+13
1.01501e+13
1.01478e+13
1.01456e+13
1.01434e+13
1.01412e+13
1.01392e+13
1.01371e+13
1.01351e+13
1.01332e+13
1.01313e+13
1.01294e+13
1.01276e+13
1.01258e+13
1.0124e+13
1.01223e+13
1.01206e+13
1.0119e+13
1.01174e+13
1.01158e+13
1.01142e+13
1.01127e+13
1.01112e+13
1.01098e+13
1.01083e+13
1.01069e+13
1.01055e+13
1.01042e+13
1.01028e+13
1.01015e+13
1.01002e+13
1.0099e+13
1.00977e+13
1.00965e+13
1.00953e+13
1.00941e+13
1.0093e+13
1.00918e+13
1.00907e+13
1.00896e+13
1.00885e+13
1.00875e+13
1.00864e+13
1.00854e+13
1.00844e+13
1.00834e+13
1.00824e+13
1.00814e+13
1.00805e+13
1.00795e+13
1.00786e+13
1.0404e+13
1.03965e+13
1.03878e+13
1.03783e+13
1.03684e+13
1.03583e+13
1.03484e+13
1.03386e+13
1.03292e+13
1.032e+13
1.03113e+13
1.03029e+13
1.02949e+13
1.02873e+13
1.028e+13
1.0273e+13
1.02664e+13
1.02601e+13
1.0254e+13
1.02482e+13
1.02427e+13
1.02374e+13
1.02323e+13
1.02274e+13
1.02227e+13
1.02182e+13
1.02138e+13
1.02096e+13
1.02056e+13
1.02017e+13
1.01979e+13
1.01943e+13
1.01908e+13
1.01873e+13
1.0184e+13
1.01808e+13
1.01777e+13
1.01747e+13
1.01718e+13
1.01689e+13
1.01662e+13
1.01635e+13
1.01609e+13
1.01583e+13
1.01558e+13
1.01534e+13
1.0151e+13
1.01487e+13
1.01465e+13
1.01443e+13
1.01421e+13
1.014e+13
1.0138e+13
1.0136e+13
1.0134e+13
1.01321e+13
1.01302e+13
1.01284e+13
1.01266e+13
1.01248e+13
1.01231e+13
1.01214e+13
1.01198e+13
1.01181e+13
1.01166e+13
1.0115e+13
1.01135e+13
1.0112e+13
1.01105e+13
1.01091e+13
1.01076e+13
1.01062e+13
1.01049e+13
1.01035e+13
1.01022e+13
1.01009e+13
1.00997e+13
1.00984e+13
1.00972e+13
1.0096e+13
1.00948e+13
1.00936e+13
1.00925e+13
1.00914e+13
1.00903e+13
1.00892e+13
1.00881e+13
1.0087e+13
1.0086e+13
1.0085e+13
1.0084e+13
1.0083e+13
1.0082e+13
1.00811e+13
1.00801e+13
1.00792e+13
1.00783e+13
1.03787e+13
1.03731e+13
1.03664e+13
1.03588e+13
1.03508e+13
1.03424e+13
1.0334e+13
1.03256e+13
1.03173e+13
1.03093e+13
1.03015e+13
1.02939e+13
1.02866e+13
1.02796e+13
1.02729e+13
1.02665e+13
1.02603e+13
1.02544e+13
1.02487e+13
1.02432e+13
1.0238e+13
1.0233e+13
1.02281e+13
1.02235e+13
1.0219e+13
1.02146e+13
1.02105e+13
1.02064e+13
1.02026e+13
1.01988e+13
1.01952e+13
1.01916e+13
1.01882e+13
1.01849e+13
1.01817e+13
1.01786e+13
1.01756e+13
1.01727e+13
1.01698e+13
1.0167e+13
1.01643e+13
1.01617e+13
1.01592e+13
1.01567e+13
1.01542e+13
1.01519e+13
1.01496e+13
1.01473e+13
1.01451e+13
1.01429e+13
1.01408e+13
1.01388e+13
1.01368e+13
1.01348e+13
1.01329e+13
1.0131e+13
1.01292e+13
1.01274e+13
1.01256e+13
1.01239e+13
1.01222e+13
1.01205e+13
1.01189e+13
1.01173e+13
1.01157e+13
1.01142e+13
1.01127e+13
1.01112e+13
1.01098e+13
1.01084e+13
1.0107e+13
1.01056e+13
1.01042e+13
1.01029e+13
1.01016e+13
1.01003e+13
1.00991e+13
1.00979e+13
1.00966e+13
1.00955e+13
1.00943e+13
1.00931e+13
1.0092e+13
1.00909e+13
1.00898e+13
1.00887e+13
1.00877e+13
1.00866e+13
1.00856e+13
1.00846e+13
1.00836e+13
1.00826e+13
1.00816e+13
1.00807e+13
1.00798e+13
1.00788e+13
1.00779e+13
1.03565e+13
1.03523e+13
1.03471e+13
1.03411e+13
1.03345e+13
1.03275e+13
1.03204e+13
1.03132e+13
1.0306e+13
1.02988e+13
1.02919e+13
1.02851e+13
1.02785e+13
1.02721e+13
1.0266e+13
1.026e+13
1.02543e+13
1.02487e+13
1.02434e+13
1.02383e+13
1.02333e+13
1.02286e+13
1.0224e+13
1.02195e+13
1.02152e+13
1.02111e+13
1.02071e+13
1.02033e+13
1.01995e+13
1.01959e+13
1.01924e+13
1.0189e+13
1.01857e+13
1.01825e+13
1.01794e+13
1.01764e+13
1.01735e+13
1.01706e+13
1.01678e+13
1.01651e+13
1.01625e+13
1.016e+13
1.01575e+13
1.0155e+13
1.01527e+13
1.01503e+13
1.01481e+13
1.01459e+13
1.01437e+13
1.01416e+13
1.01396e+13
1.01376e+13
1.01356e+13
1.01337e+13
1.01318e+13
1.01299e+13
1.01281e+13
1.01264e+13
1.01246e+13
1.01229e+13
1.01213e+13
1.01196e+13
1.0118e+13
1.01165e+13
1.01149e+13
1.01134e+13
1.01119e+13
1.01105e+13
1.01091e+13
1.01076e+13
1.01063e+13
1.01049e+13
1.01036e+13
1.01023e+13
1.0101e+13
1.00997e+13
1.00985e+13
1.00973e+13
1.00961e+13
1.00949e+13
1.00938e+13
1.00926e+13
1.00915e+13
1.00904e+13
1.00893e+13
1.00883e+13
1.00872e+13
1.00862e+13
1.00852e+13
1.00842e+13
1.00832e+13
1.00822e+13
1.00813e+13
1.00803e+13
1.00794e+13
1.00785e+13
1.00776e+13
1.0337e+13
1.03338e+13
1.03297e+13
1.03248e+13
1.03194e+13
1.03136e+13
1.03075e+13
1.03013e+13
1.02951e+13
1.02888e+13
1.02826e+13
1.02765e+13
1.02705e+13
1.02647e+13
1.02591e+13
1.02536e+13
1.02483e+13
1.02431e+13
1.02381e+13
1.02333e+13
1.02287e+13
1.02242e+13
1.02198e+13
1.02156e+13
1.02115e+13
1.02076e+13
1.02038e+13
1.02001e+13
1.01965e+13
1.0193e+13
1.01896e+13
1.01863e+13
1.01832e+13
1.01801e+13
1.01771e+13
1.01742e+13
1.01713e+13
1.01685e+13
1.01659e+13
1.01632e+13
1.01607e+13
1.01582e+13
1.01558e+13
1.01534e+13
1.01511e+13
1.01488e+13
1.01466e+13
1.01445e+13
1.01424e+13
1.01403e+13
1.01383e+13
1.01363e+13
1.01344e+13
1.01325e+13
1.01307e+13
1.01288e+13
1.01271e+13
1.01253e+13
1.01236e+13
1.0122e+13
1.01203e+13
1.01187e+13
1.01172e+13
1.01156e+13
1.01141e+13
1.01126e+13
1.01112e+13
1.01097e+13
1.01083e+13
1.01069e+13
1.01056e+13
1.01043e+13
1.01029e+13
1.01017e+13
1.01004e+13
1.00992e+13
1.00979e+13
1.00967e+13
1.00956e+13
1.00944e+13
1.00933e+13
1.00921e+13
1.0091e+13
1.00899e+13
1.00889e+13
1.00878e+13
1.00868e+13
1.00858e+13
1.00848e+13
1.00838e+13
1.00828e+13
1.00818e+13
1.00809e+13
1.008e+13
1.00791e+13
1.00782e+13
1.00773e+13
1.03196e+13
1.03172e+13
1.03139e+13
1.031e+13
1.03055e+13
1.03006e+13
1.02955e+13
1.02901e+13
1.02847e+13
1.02792e+13
1.02737e+13
1.02682e+13
1.02628e+13
1.02575e+13
1.02523e+13
1.02473e+13
1.02424e+13
1.02376e+13
1.02329e+13
1.02284e+13
1.0224e+13
1.02198e+13
1.02157e+13
1.02117e+13
1.02078e+13
1.0204e+13
1.02004e+13
1.01969e+13
1.01934e+13
1.01901e+13
1.01868e+13
1.01837e+13
1.01806e+13
1.01776e+13
1.01747e+13
1.01719e+13
1.01692e+13
1.01665e+13
1.01639e+13
1.01613e+13
1.01588e+13
1.01564e+13
1.01541e+13
1.01517e+13
1.01495e+13
1.01473e+13
1.01451e+13
1.0143e+13
1.0141e+13
1.0139e+13
1.0137e+13
1.01351e+13
1.01332e+13
1.01313e+13
1.01295e+13
1.01278e+13
1.0126e+13
1.01243e+13
1.01226e+13
1.0121e+13
1.01194e+13
1.01178e+13
1.01163e+13
1.01148e+13
1.01133e+13
1.01118e+13
1.01104e+13
1.0109e+13
1.01076e+13
1.01062e+13
1.01049e+13
1.01036e+13
1.01023e+13
1.0101e+13
1.00998e+13
1.00986e+13
1.00974e+13
1.00962e+13
1.0095e+13
1.00939e+13
1.00927e+13
1.00916e+13
1.00905e+13
1.00895e+13
1.00884e+13
1.00874e+13
1.00863e+13
1.00853e+13
1.00843e+13
1.00834e+13
1.00824e+13
1.00815e+13
1.00805e+13
1.00796e+13
1.00787e+13
1.00778e+13
1.00769e+13
1.03051e+13
1.0304e+13
1.03022e+13
1.02996e+13
1.02964e+13
1.02927e+13
1.02886e+13
1.02842e+13
1.02796e+13
1.02748e+13
1.02699e+13
1.0265e+13
1.02602e+13
1.02553e+13
1.02505e+13
1.02458e+13
1.02411e+13
1.02366e+13
1.02321e+13
1.02278e+13
1.02236e+13
1.02195e+13
1.02155e+13
1.02116e+13
1.02078e+13
1.02041e+13
1.02005e+13
1.01971e+13
1.01937e+13
1.01904e+13
1.01872e+13
1.01841e+13
1.0181e+13
1.01781e+13
1.01752e+13
1.01724e+13
1.01697e+13
1.0167e+13
1.01644e+13
1.01619e+13
1.01594e+13
1.0157e+13
1.01547e+13
1.01524e+13
1.01501e+13
1.01479e+13
1.01458e+13
1.01437e+13
1.01416e+13
1.01396e+13
1.01376e+13
1.01357e+13
1.01338e+13
1.0132e+13
1.01302e+13
1.01284e+13
1.01267e+13
1.0125e+13
1.01233e+13
1.01216e+13
1.012e+13
1.01185e+13
1.01169e+13
1.01154e+13
1.01139e+13
1.01124e+13
1.0111e+13
1.01096e+13
1.01082e+13
1.01069e+13
1.01055e+13
1.01042e+13
1.01029e+13
1.01016e+13
1.01004e+13
1.00992e+13
1.0098e+13
1.00968e+13
1.00956e+13
1.00945e+13
1.00933e+13
1.00922e+13
1.00911e+13
1.009e+13
1.0089e+13
1.00879e+13
1.00869e+13
1.00859e+13
1.00849e+13
1.00839e+13
1.0083e+13
1.0082e+13
1.00811e+13
1.00802e+13
1.00792e+13
1.00783e+13
1.00775e+13
1.00766e+13
1.02908e+13
1.029e+13
1.02886e+13
1.02865e+13
1.02839e+13
1.02808e+13
1.02774e+13
1.02736e+13
1.02696e+13
1.02654e+13
1.02612e+13
1.02568e+13
1.02524e+13
1.0248e+13
1.02437e+13
1.02394e+13
1.02351e+13
1.02309e+13
1.02268e+13
1.02227e+13
1.02188e+13
1.0215e+13
1.02112e+13
1.02075e+13
1.02039e+13
1.02004e+13
1.0197e+13
1.01937e+13
1.01905e+13
1.01874e+13
1.01843e+13
1.01813e+13
1.01784e+13
1.01756e+13
1.01728e+13
1.01701e+13
1.01674e+13
1.01649e+13
1.01624e+13
1.01599e+13
1.01575e+13
1.01552e+13
1.01529e+13
1.01506e+13
1.01485e+13
1.01463e+13
1.01442e+13
1.01422e+13
1.01402e+13
1.01382e+13
1.01363e+13
1.01344e+13
1.01326e+13
1.01308e+13
1.0129e+13
1.01273e+13
1.01256e+13
1.01239e+13
1.01223e+13
1.01207e+13
1.01191e+13
1.01175e+13
1.0116e+13
1.01145e+13
1.01131e+13
1.01116e+13
1.01102e+13
1.01088e+13
1.01075e+13
1.01061e+13
1.01048e+13
1.01035e+13
1.01022e+13
1.0101e+13
1.00998e+13
1.00985e+13
1.00974e+13
1.00962e+13
1.0095e+13
1.00939e+13
1.00928e+13
1.00917e+13
1.00906e+13
1.00895e+13
1.00885e+13
1.00875e+13
1.00865e+13
1.00855e+13
1.00845e+13
1.00835e+13
1.00825e+13
1.00816e+13
1.00807e+13
1.00798e+13
1.00789e+13
1.0078e+13
1.00771e+13
1.00763e+13
1.02779e+13
1.02774e+13
1.02763e+13
1.02746e+13
1.02724e+13
1.02699e+13
1.02669e+13
1.02637e+13
1.02602e+13
1.02566e+13
1.02528e+13
1.02489e+13
1.0245e+13
1.0241e+13
1.02371e+13
1.02331e+13
1.02292e+13
1.02254e+13
1.02215e+13
1.02178e+13
1.02141e+13
1.02105e+13
1.0207e+13
1.02035e+13
1.02001e+13
1.01968e+13
1.01936e+13
1.01904e+13
1.01874e+13
1.01844e+13
1.01814e+13
1.01786e+13
1.01758e+13
1.0173e+13
1.01704e+13
1.01678e+13
1.01652e+13
1.01627e+13
1.01603e+13
1.01579e+13
1.01556e+13
1.01533e+13
1.01511e+13
1.01489e+13
1.01468e+13
1.01447e+13
1.01427e+13
1.01407e+13
1.01388e+13
1.01368e+13
1.0135e+13
1.01331e+13
1.01313e+13
1.01296e+13
1.01278e+13
1.01261e+13
1.01245e+13
1.01228e+13
1.01212e+13
1.01197e+13
1.01181e+13
1.01166e+13
1.01151e+13
1.01136e+13
1.01122e+13
1.01108e+13
1.01094e+13
1.0108e+13
1.01067e+13
1.01054e+13
1.01041e+13
1.01028e+13
1.01016e+13
1.01003e+13
1.00991e+13
1.00979e+13
1.00968e+13
1.00956e+13
1.00945e+13
1.00933e+13
1.00922e+13
1.00912e+13
1.00901e+13
1.0089e+13
1.0088e+13
1.0087e+13
1.0086e+13
1.0085e+13
1.0084e+13
1.00831e+13
1.00821e+13
1.00812e+13
1.00803e+13
1.00794e+13
1.00785e+13
1.00776e+13
1.00768e+13
1.00759e+13
1.02662e+13
1.02658e+13
1.0265e+13
1.02636e+13
1.02619e+13
1.02597e+13
1.02572e+13
1.02544e+13
1.02514e+13
1.02482e+13
1.02448e+13
1.02414e+13
1.02379e+13
1.02343e+13
1.02307e+13
1.02271e+13
1.02235e+13
1.022e+13
1.02164e+13
1.02129e+13
1.02095e+13
1.02061e+13
1.02028e+13
1.01996e+13
1.01964e+13
1.01932e+13
1.01902e+13
1.01872e+13
1.01842e+13
1.01814e+13
1.01786e+13
1.01758e+13
1.01731e+13
1.01705e+13
1.0168e+13
1.01655e+13
1.0163e+13
1.01606e+13
1.01582e+13
1.0156e+13
1.01537e+13
1.01515e+13
1.01493e+13
1.01472e+13
1.01452e+13
1.01432e+13
1.01412e+13
1.01392e+13
1.01373e+13
1.01355e+13
1.01336e+13
1.01318e+13
1.01301e+13
1.01284e+13
1.01267e+13
1.0125e+13
1.01234e+13
1.01218e+13
1.01202e+13
1.01187e+13
1.01171e+13
1.01157e+13
1.01142e+13
1.01128e+13
1.01113e+13
1.011e+13
1.01086e+13
1.01073e+13
1.01059e+13
1.01046e+13
1.01034e+13
1.01021e+13
1.01009e+13
1.00997e+13
1.00985e+13
1.00973e+13
1.00961e+13
1.0095e+13
1.00939e+13
1.00928e+13
1.00917e+13
1.00906e+13
1.00896e+13
1.00885e+13
1.00875e+13
1.00865e+13
1.00855e+13
1.00846e+13
1.00836e+13
1.00827e+13
1.00817e+13
1.00808e+13
1.00799e+13
1.0079e+13
1.00781e+13
1.00773e+13
1.00764e+13
1.00756e+13
1.02555e+13
1.02553e+13
1.02547e+13
1.02536e+13
1.02521e+13
1.02503e+13
1.02481e+13
1.02457e+13
1.02431e+13
1.02403e+13
1.02373e+13
1.02342e+13
1.02311e+13
1.02278e+13
1.02246e+13
1.02213e+13
1.0218e+13
1.02147e+13
1.02114e+13
1.02082e+13
1.0205e+13
1.02019e+13
1.01987e+13
1.01957e+13
1.01927e+13
1.01897e+13
1.01868e+13
1.0184e+13
1.01812e+13
1.01784e+13
1.01758e+13
1.01731e+13
1.01706e+13
1.0168e+13
1.01656e+13
1.01632e+13
1.01608e+13
1.01585e+13
1.01562e+13
1.0154e+13
1.01518e+13
1.01497e+13
1.01476e+13
1.01455e+13
1.01435e+13
1.01416e+13
1.01396e+13
1.01378e+13
1.01359e+13
1.01341e+13
1.01323e+13
1.01306e+13
1.01288e+13
1.01271e+13
1.01255e+13
1.01239e+13
1.01223e+13
1.01207e+13
1.01192e+13
1.01177e+13
1.01162e+13
1.01147e+13
1.01133e+13
1.01119e+13
1.01105e+13
1.01091e+13
1.01078e+13
1.01065e+13
1.01052e+13
1.01039e+13
1.01026e+13
1.01014e+13
1.01002e+13
1.0099e+13
1.00978e+13
1.00967e+13
1.00955e+13
1.00944e+13
1.00933e+13
1.00922e+13
1.00912e+13
1.00901e+13
1.00891e+13
1.0088e+13
1.0087e+13
1.00861e+13
1.00851e+13
1.00841e+13
1.00832e+13
1.00822e+13
1.00813e+13
1.00804e+13
1.00795e+13
1.00786e+13
1.00778e+13
1.00769e+13
1.00761e+13
1.00752e+13
1.02457e+13
1.02457e+13
1.02451e+13
1.02443e+13
1.0243e+13
1.02415e+13
1.02396e+13
1.02375e+13
1.02352e+13
1.02328e+13
1.02301e+13
1.02274e+13
1.02245e+13
1.02216e+13
1.02187e+13
1.02157e+13
1.02126e+13
1.02096e+13
1.02066e+13
1.02036e+13
1.02006e+13
1.01977e+13
1.01947e+13
1.01919e+13
1.0189e+13
1.01862e+13
1.01835e+13
1.01808e+13
1.01781e+13
1.01755e+13
1.0173e+13
1.01705e+13
1.0168e+13
1.01656e+13
1.01632e+13
1.01609e+13
1.01586e+13
1.01564e+13
1.01542e+13
1.0152e+13
1.01499e+13
1.01479e+13
1.01458e+13
1.01439e+13
1.01419e+13
1.014e+13
1.01381e+13
1.01363e+13
1.01345e+13
1.01327e+13
1.0131e+13
1.01293e+13
1.01276e+13
1.01259e+13
1.01243e+13
1.01227e+13
1.01212e+13
1.01197e+13
1.01181e+13
1.01167e+13
1.01152e+13
1.01138e+13
1.01124e+13
1.0111e+13
1.01096e+13
1.01083e+13
1.0107e+13
1.01057e+13
1.01044e+13
1.01032e+13
1.01019e+13
1.01007e+13
1.00995e+13
1.00984e+13
1.00972e+13
1.00961e+13
1.00949e+13
1.00938e+13
1.00927e+13
1.00917e+13
1.00906e+13
1.00896e+13
1.00886e+13
1.00875e+13
1.00866e+13
1.00856e+13
1.00846e+13
1.00837e+13
1.00827e+13
1.00818e+13
1.00809e+13
1.008e+13
1.00791e+13
1.00782e+13
1.00774e+13
1.00765e+13
1.00757e+13
1.00749e+13
1.02368e+13
1.02367e+13
1.02364e+13
1.02356e+13
1.02346e+13
1.02333e+13
1.02317e+13
1.02299e+13
1.02279e+13
1.02257e+13
1.02233e+13
1.02209e+13
1.02183e+13
1.02157e+13
1.0213e+13
1.02102e+13
1.02075e+13
1.02047e+13
1.02019e+13
1.01991e+13
1.01963e+13
1.01936e+13
1.01908e+13
1.01881e+13
1.01855e+13
1.01828e+13
1.01802e+13
1.01777e+13
1.01751e+13
1.01726e+13
1.01702e+13
1.01678e+13
1.01654e+13
1.01631e+13
1.01609e+13
1.01586e+13
1.01564e+13
1.01543e+13
1.01522e+13
1.01501e+13
1.01481e+13
1.01461e+13
1.01441e+13
1.01422e+13
1.01403e+13
1.01384e+13
1.01366e+13
1.01348e+13
1.01331e+13
1.01313e+13
1.01297e+13
1.0128e+13
1.01264e+13
1.01247e+13
1.01232e+13
1.01216e+13
1.01201e+13
1.01186e+13
1.01171e+13
1.01157e+13
1.01142e+13
1.01128e+13
1.01115e+13
1.01101e+13
1.01088e+13
1.01075e+13
1.01062e+13
1.01049e+13
1.01037e+13
1.01024e+13
1.01012e+13
1.01e+13
1.00988e+13
1.00977e+13
1.00966e+13
1.00954e+13
1.00943e+13
1.00932e+13
1.00922e+13
1.00911e+13
1.00901e+13
1.00891e+13
1.0088e+13
1.0087e+13
1.00861e+13
1.00851e+13
1.00842e+13
1.00832e+13
1.00823e+13
1.00814e+13
1.00805e+13
1.00796e+13
1.00787e+13
1.00779e+13
1.0077e+13
1.00762e+13
1.00753e+13
1.00745e+13
1.02285e+13
1.02285e+13
1.02282e+13
1.02276e+13
1.02268e+13
1.02256e+13
1.02243e+13
1.02227e+13
1.02209e+13
1.0219e+13
1.02169e+13
1.02147e+13
1.02124e+13
1.021e+13
1.02075e+13
1.0205e+13
1.02025e+13
1.01999e+13
1.01973e+13
1.01947e+13
1.01922e+13
1.01896e+13
1.0187e+13
1.01845e+13
1.0182e+13
1.01795e+13
1.0177e+13
1.01746e+13
1.01722e+13
1.01698e+13
1.01675e+13
1.01652e+13
1.01629e+13
1.01607e+13
1.01585e+13
1.01564e+13
1.01543e+13
1.01522e+13
1.01502e+13
1.01482e+13
1.01462e+13
1.01443e+13
1.01424e+13
1.01405e+13
1.01387e+13
1.01369e+13
1.01351e+13
1.01334e+13
1.01317e+13
1.013e+13
1.01283e+13
1.01267e+13
1.01251e+13
1.01236e+13
1.0122e+13
1.01205e+13
1.0119e+13
1.01175e+13
1.01161e+13
1.01147e+13
1.01133e+13
1.01119e+13
1.01106e+13
1.01092e+13
1.01079e+13
1.01066e+13
1.01054e+13
1.01041e+13
1.01029e+13
1.01017e+13
1.01005e+13
1.00993e+13
1.00982e+13
1.0097e+13
1.00959e+13
1.00948e+13
1.00937e+13
1.00927e+13
1.00916e+13
1.00906e+13
1.00895e+13
1.00885e+13
1.00875e+13
1.00865e+13
1.00856e+13
1.00846e+13
1.00837e+13
1.00828e+13
1.00819e+13
1.00809e+13
1.00801e+13
1.00792e+13
1.00783e+13
1.00775e+13
1.00766e+13
1.00758e+13
1.0075e+13
1.00742e+13
1.02208e+13
1.02209e+13
1.02207e+13
1.02202e+13
1.02195e+13
1.02185e+13
1.02173e+13
1.02159e+13
1.02144e+13
1.02126e+13
1.02108e+13
1.02088e+13
1.02067e+13
1.02045e+13
1.02023e+13
1.02e+13
1.01977e+13
1.01953e+13
1.01929e+13
1.01905e+13
1.01881e+13
1.01857e+13
1.01833e+13
1.01809e+13
1.01785e+13
1.01762e+13
1.01739e+13
1.01715e+13
1.01693e+13
1.0167e+13
1.01648e+13
1.01626e+13
1.01605e+13
1.01583e+13
1.01562e+13
1.01542e+13
1.01522e+13
1.01502e+13
1.01482e+13
1.01463e+13
1.01444e+13
1.01425e+13
1.01407e+13
1.01389e+13
1.01371e+13
1.01353e+13
1.01336e+13
1.01319e+13
1.01303e+13
1.01286e+13
1.0127e+13
1.01254e+13
1.01239e+13
1.01224e+13
1.01209e+13
1.01194e+13
1.01179e+13
1.01165e+13
1.01151e+13
1.01137e+13
1.01123e+13
1.0111e+13
1.01097e+13
1.01084e+13
1.01071e+13
1.01058e+13
1.01046e+13
1.01033e+13
1.01021e+13
1.0101e+13
1.00998e+13
1.00986e+13
1.00975e+13
1.00964e+13
1.00953e+13
1.00942e+13
1.00931e+13
1.00921e+13
1.0091e+13
1.009e+13
1.0089e+13
1.0088e+13
1.0087e+13
1.0086e+13
1.00851e+13
1.00842e+13
1.00832e+13
1.00823e+13
1.00814e+13
1.00805e+13
1.00796e+13
1.00788e+13
1.00779e+13
1.00771e+13
1.00763e+13
1.00754e+13
1.00746e+13
1.00738e+13
1.02136e+13
1.02137e+13
1.02136e+13
1.02132e+13
1.02126e+13
1.02118e+13
1.02108e+13
1.02095e+13
1.02082e+13
1.02066e+13
1.0205e+13
1.02032e+13
1.02013e+13
1.01993e+13
1.01973e+13
1.01952e+13
1.0193e+13
1.01908e+13
1.01886e+13
1.01864e+13
1.01842e+13
1.01819e+13
1.01797e+13
1.01774e+13
1.01752e+13
1.0173e+13
1.01708e+13
1.01686e+13
1.01664e+13
1.01643e+13
1.01622e+13
1.01601e+13
1.0158e+13
1.0156e+13
1.0154e+13
1.0152e+13
1.015e+13
1.01481e+13
1.01462e+13
1.01444e+13
1.01425e+13
1.01407e+13
1.0139e+13
1.01372e+13
1.01355e+13
1.01338e+13
1.01321e+13
1.01305e+13
1.01289e+13
1.01273e+13
1.01257e+13
1.01242e+13
1.01227e+13
1.01212e+13
1.01197e+13
1.01183e+13
1.01168e+13
1.01154e+13
1.01141e+13
1.01127e+13
1.01114e+13
1.01101e+13
1.01088e+13
1.01075e+13
1.01062e+13
1.0105e+13
1.01038e+13
1.01026e+13
1.01014e+13
1.01002e+13
1.00991e+13
1.00979e+13
1.00968e+13
1.00957e+13
1.00946e+13
1.00936e+13
1.00925e+13
1.00915e+13
1.00905e+13
1.00894e+13
1.00884e+13
1.00875e+13
1.00865e+13
1.00855e+13
1.00846e+13
1.00837e+13
1.00828e+13
1.00819e+13
1.0081e+13
1.00801e+13
1.00792e+13
1.00784e+13
1.00775e+13
1.00767e+13
1.00759e+13
1.00751e+13
1.00743e+13
1.00735e+13
1.0207e+13
1.02071e+13
1.0207e+13
1.02067e+13
1.02062e+13
1.02055e+13
1.02046e+13
1.02035e+13
1.02023e+13
1.02009e+13
1.01994e+13
1.01978e+13
1.01961e+13
1.01943e+13
1.01925e+13
1.01905e+13
1.01886e+13
1.01865e+13
1.01845e+13
1.01824e+13
1.01803e+13
1.01782e+13
1.01761e+13
1.0174e+13
1.01719e+13
1.01698e+13
1.01677e+13
1.01657e+13
1.01636e+13
1.01616e+13
1.01596e+13
1.01576e+13
1.01556e+13
1.01537e+13
1.01517e+13
1.01498e+13
1.0148e+13
1.01461e+13
1.01443e+13
1.01425e+13
1.01407e+13
1.0139e+13
1.01373e+13
1.01356e+13
1.01339e+13
1.01323e+13
1.01307e+13
1.01291e+13
1.01275e+13
1.01259e+13
1.01244e+13
1.01229e+13
1.01215e+13
1.012e+13
1.01186e+13
1.01172e+13
1.01158e+13
1.01144e+13
1.01131e+13
1.01117e+13
1.01104e+13
1.01091e+13
1.01079e+13
1.01066e+13
1.01054e+13
1.01042e+13
1.0103e+13
1.01018e+13
1.01006e+13
1.00995e+13
1.00984e+13
1.00972e+13
1.00961e+13
1.00951e+13
1.0094e+13
1.00929e+13
1.00919e+13
1.00909e+13
1.00899e+13
1.00889e+13
1.00879e+13
1.00869e+13
1.0086e+13
1.0085e+13
1.00841e+13
1.00832e+13
1.00823e+13
1.00814e+13
1.00805e+13
1.00797e+13
1.00788e+13
1.0078e+13
1.00771e+13
1.00763e+13
1.00755e+13
1.00747e+13
1.00739e+13
1.00731e+13
1.02007e+13
1.02009e+13
1.02008e+13
1.02006e+13
1.02002e+13
1.01996e+13
1.01988e+13
1.01978e+13
1.01967e+13
1.01955e+13
1.01942e+13
1.01927e+13
1.01912e+13
1.01895e+13
1.01878e+13
1.01861e+13
1.01843e+13
1.01824e+13
1.01805e+13
1.01786e+13
1.01766e+13
1.01747e+13
1.01727e+13
1.01707e+13
1.01687e+13
1.01667e+13
1.01648e+13
1.01628e+13
1.01609e+13
1.01589e+13
1.0157e+13
1.01551e+13
1.01532e+13
1.01514e+13
1.01495e+13
1.01477e+13
1.01459e+13
1.01441e+13
1.01424e+13
1.01407e+13
1.0139e+13
1.01373e+13
1.01356e+13
1.0134e+13
1.01324e+13
1.01308e+13
1.01292e+13
1.01276e+13
1.01261e+13
1.01246e+13
1.01231e+13
1.01217e+13
1.01202e+13
1.01188e+13
1.01174e+13
1.01161e+13
1.01147e+13
1.01134e+13
1.0112e+13
1.01107e+13
1.01095e+13
1.01082e+13
1.0107e+13
1.01057e+13
1.01045e+13
1.01033e+13
1.01022e+13
1.0101e+13
1.00999e+13
1.00988e+13
1.00976e+13
1.00965e+13
1.00955e+13
1.00944e+13
1.00934e+13
1.00923e+13
1.00913e+13
1.00903e+13
1.00893e+13
1.00883e+13
1.00874e+13
1.00864e+13
1.00855e+13
1.00845e+13
1.00836e+13
1.00827e+13
1.00818e+13
1.0081e+13
1.00801e+13
1.00792e+13
1.00784e+13
1.00776e+13
1.00767e+13
1.00759e+13
1.00751e+13
1.00743e+13
1.00736e+13
1.00728e+13
1.01945e+13
1.01949e+13
1.01951e+13
1.01951e+13
1.01949e+13
1.01945e+13
1.0194e+13
1.01933e+13
1.01924e+13
1.01915e+13
1.01904e+13
1.01892e+13
1.01879e+13
1.01865e+13
1.0185e+13
1.01834e+13
1.01818e+13
1.01801e+13
1.01784e+13
1.01766e+13
1.01748e+13
1.0173e+13
1.01712e+13
1.01693e+13
1.01675e+13
1.01656e+13
1.01637e+13