/*--------------------------------*- C++ -*----------------------------------*\
  =========                 |
  \\      /  F ield         | OpenFOAM: The Open Source CFD Toolbox
   \\    /   O peration     | Website:  https://openfoam.org
    \\  /    A nd           | Version:  7
     \\/     M anipulation  |
\*---------------------------------------------------------------------------*/
FoamFile
{
    version     2.0;
    format      ascii;
    class       volVectorField;
    location    "0.4/solid";
    object      qSolid;
}
// * * * * * * * * * * * * * * * * * * * * * * * * * * * * * * * * * * * * * //

dimensions      [0 -1 0 1 0 0 0];

internalField   nonuniform List<vector> 
1600
(
(45.4233 0.00017858 -0)
(45.4232 0.000138281 -0)
(45.4232 0.000132089 -0)
(45.4231 0.0001617 -0)
(45.4232 6.55158e-05 -0)
(45.4232 -1.5134e-05 -0)
(45.4231 -8.99387e-06 -0)
(45.4232 -3.81349e-05 -0)
(45.4231 -2.79057e-06 -0)
(45.4231 5.08474e-05 -0)
(45.4232 -6.75838e-06 -0)
(45.4231 -6.03895e-05 -0)
(45.423 -8.31546e-06 -0)
(45.4232 5.50723e-05 -0)
(45.4233 3.32045e-05 -0)
(45.4231 -3.3932e-05 -0)
(45.423 -5.74428e-05 -0)
(45.423 -1.90035e-05 -0)
(45.4232 3.00267e-05 -0)
(45.4233 4.16172e-05 -0)
(45.4232 1.32042e-05 -0)
(45.4231 -2.46721e-05 -0)
(45.423 -4.14182e-05 -0)
(45.423 -2.8621e-05 -0)
(45.4231 -9.72733e-08 -0)
(45.4232 2.35681e-05 -0)
(45.4232 3.01324e-05 -0)
(45.4232 2.00255e-05 -0)
(45.423 1.63572e-06 -0)
(45.4229 -1.52527e-05 -0)
(45.4229 -2.36989e-05 -0)
(45.4229 -2.13618e-05 -0)
(45.423 -1.04528e-05 -0)
(45.4231 3.87752e-06 -0)
(45.4232 1.60851e-05 -0)
(45.4232 2.24447e-05 -0)
(45.4231 2.19464e-05 -0)
(45.423 1.5918e-05 -0)
(45.423 7.28525e-06 -0)
(45.4229 9.72591e-07 -0)
(45.4231 0.000265771 -0)
(45.4232 0.000204565 -0)
(45.4233 0.000111212 -0)
(45.423 0.000212463 -0)
(45.4231 0.000142683 -0)
(45.4232 -4.09428e-05 -0)
(45.4231 -1.82616e-05 -0)
(45.4232 3.60203e-05 -0)
(45.4232 8.95534e-06 -0)
(45.4231 -2.02224e-05 -0)
(45.4231 -4.44884e-05 -0)
(45.4231 -2.33962e-05 -0)
(45.4232 3.86408e-05 -0)
(45.4232 5.00952e-05 -0)
(45.4232 -1.59016e-05 -0)
(45.423 -7.85956e-05 -0)
(45.423 -6.58096e-05 -0)
(45.4231 1.87352e-06 -0)
(45.4233 5.03534e-05 -0)
(45.4233 3.73501e-05 -0)
(45.4231 -1.68615e-05 -0)
(45.423 -6.29285e-05 -0)
(45.423 -6.8133e-05 -0)
(45.423 -3.51127e-05 -0)
(45.4232 9.50275e-06 -0)
(45.4233 3.83662e-05 -0)
(45.4232 3.95365e-05 -0)
(45.4231 1.82861e-05 -0)
(45.423 -1.06751e-05 -0)
(45.4229 -3.24997e-05 -0)
(45.4229 -3.83442e-05 -0)
(45.4229 -2.74217e-05 -0)
(45.423 -5.59485e-06 -0)
(45.4231 1.82469e-05 -0)
(45.4232 3.61771e-05 -0)
(45.4232 4.38081e-05 -0)
(45.4231 4.07732e-05 -0)
(45.423 2.97535e-05 -0)
(45.4229 1.52897e-05 -0)
(45.4229 3.45276e-06 -0)
(45.4229 7.8224e-05 -0)
(45.423 0.000137593 -0)
(45.4233 -1.06966e-05 -0)
(45.4231 -4.24396e-05 -0)
(45.423 5.71166e-05 -0)
(45.4231 6.48949e-05 -0)
(45.4232 3.77933e-05 -0)
(45.4232 4.23234e-05 -0)
(45.423 -3.33456e-05 -0)
(45.423 -7.74057e-05 -0)
(45.4232 -7.36708e-06 -0)
(45.4232 6.36097e-05 -0)
(45.4231 3.82017e-05 -0)
(45.4231 -4.40993e-05 -0)
(45.4231 -8.84963e-05 -0)
(45.4231 -5.95757e-05 -0)
(45.4231 2.977e-07 -0)
(45.4231 3.21037e-05 -0)
(45.4232 1.41289e-05 -0)
(45.4232 -3.19875e-05 -0)
(45.4231 -6.84727e-05 -0)
(45.423 -7.20389e-05 -0)
(45.423 -4.58553e-05 -0)
(45.4231 -1.01319e-05 -0)
(45.4232 1.49428e-05 -0)
(45.4233 1.99698e-05 -0)
(45.4232 7.44567e-06 -0)
(45.4231 -1.27134e-05 -0)
(45.423 -2.90273e-05 -0)
(45.4229 -3.35151e-05 -0)
(45.4229 -2.44609e-05 -0)
(45.423 -5.94609e-06 -0)
(45.4231 1.51491e-05 -0)
(45.4231 3.2571e-05 -0)
(45.4232 4.26887e-05 -0)
(45.4232 4.46695e-05 -0)
(45.4231 3.96452e-05 -0)
(45.423 2.98239e-05 -0)
(45.4229 1.78689e-05 -0)
(45.4229 5.81407e-06 -0)
(45.423 0.000109034 -0)
(45.4231 0.000108296 -0)
(45.4231 1.66519e-05 -0)
(45.4231 -5.38907e-05 -0)
(45.4232 1.12981e-05 -0)
(45.4232 0.000103181 -0)
(45.4231 3.2364e-05 -0)
(45.4231 -5.39063e-05 -0)
(45.4231 -4.41701e-05 -0)
(45.4231 1.72077e-05 -0)
(45.4232 5.04208e-05 -0)
(45.4232 2.05605e-05 -0)
(45.423 -3.92804e-05 -0)
(45.4231 -7.26783e-05 -0)
(45.4232 -5.67952e-05 -0)
(45.4231 -1.45814e-05 -0)
(45.4231 1.33759e-05 -0)
(45.4231 4.94794e-06 -0)
(45.4232 -2.99908e-05 -0)
(45.4232 -6.4268e-05 -0)
(45.4231 -7.65148e-05 -0)
(45.423 -6.30603e-05 -0)
(45.423 -3.51751e-05 -0)
(45.4231 -9.03913e-06 -0)
(45.4232 3.63e-06 -0)
(45.4232 1.60085e-07 -0)
(45.4232 -1.38225e-05 -0)
(45.4231 -2.86683e-05 -0)
(45.423 -3.57969e-05 -0)
(45.4229 -3.12357e-05 -0)
(45.4229 -1.63717e-05 -0)
(45.423 3.82478e-06 -0)
(45.4231 2.36237e-05 -0)
(45.4232 3.87254e-05 -0)
(45.4232 4.70079e-05 -0)
(45.4232 4.81632e-05 -0)
(45.4231 4.3042e-05 -0)
(45.423 3.32094e-05 -0)
(45.4229 2.06265e-05 -0)
(45.4229 7.0348e-06 -0)
(45.4229 8.98291e-05 -0)
(45.4229 0.000101092 -0)
(45.4231 6.68365e-05 -0)
(45.4231 8.21386e-05 -0)
(45.4231 4.00253e-05 -0)
(45.4231 -1.02249e-06 -0)
(45.423 -2.47784e-05 -0)
(45.4231 -1.45285e-05 -0)
(45.4231 2.25551e-05 -0)
(45.4231 4.08112e-05 -0)
(45.4232 1.73408e-05 -0)
(45.4231 -2.75155e-05 -0)
(45.423 -5.64284e-05 -0)
(45.4231 -4.99317e-05 -0)
(45.4232 -2.08136e-05 -0)
(45.4232 2.14092e-06 -0)
(45.4231 -6.12843e-08 -0)
(45.4231 -2.51572e-05 -0)
(45.4232 -5.5985e-05 -0)
(45.4232 -7.45318e-05 -0)
(45.4231 -7.2637e-05 -0)
(45.423 -5.43321e-05 -0)
(45.423 -3.12084e-05 -0)
(45.4231 -1.50677e-05 -0)
(45.4232 -1.1928e-05 -0)
(45.4232 -2.00497e-05 -0)
(45.4232 -3.22946e-05 -0)
(45.4231 -4.06289e-05 -0)
(45.423 -3.98744e-05 -0)
(45.4229 -2.91564e-05 -0)
(45.4229 -1.12117e-05 -0)
(45.423 9.42531e-06 -0)
(45.4231 2.82867e-05 -0)
(45.4232 4.21724e-05 -0)
(45.4232 4.94958e-05 -0)
(45.4232 5.00407e-05 -0)
(45.4231 4.456e-05 -0)
(45.423 3.44707e-05 -0)
(45.4229 2.15491e-05 -0)
(45.4228 7.42958e-06 -0)
(45.423 -5.07978e-05 -0)
(45.423 9.25058e-05 -0)
(45.4231 9.52749e-05 -0)
(45.4231 5.85483e-05 -0)
(45.4231 7.11662e-06 -0)
(45.4231 -1.55059e-05 -0)
(45.4231 1.34087e-06 -0)
(45.4231 2.83667e-05 -0)
(45.4231 3.78371e-05 -0)
(45.4231 1.86065e-05 -0)
(45.4232 -1.58389e-05 -0)
(45.4231 -3.96301e-05 -0)
(45.423 -3.8616e-05 -0)
(45.4231 -1.96055e-05 -0)
(45.4232 -1.48267e-06 -0)
(45.4232 5.28821e-08 -0)
(45.4231 -1.755e-05 -0)
(45.4231 -4.4295e-05 -0)
(45.4231 -6.58048e-05 -0)
(45.4232 -7.23416e-05 -0)
(45.4231 -6.34004e-05 -0)
(45.4231 -4.63172e-05 -0)
(45.4231 -3.10613e-05 -0)
(45.4231 -2.48115e-05 -0)
(45.4232 -2.88543e-05 -0)
(45.4232 -3.88325e-05 -0)
(45.4232 -4.78212e-05 -0)
(45.4231 -5.00939e-05 -0)
(45.423 -4.33033e-05 -0)
(45.4229 -2.84724e-05 -0)
(45.4229 -8.74907e-06 -0)
(45.423 1.19707e-05 -0)
(45.4231 3.00997e-05 -0)
(45.4232 4.30489e-05 -0)
(45.4232 4.95235e-05 -0)
(45.4232 4.94465e-05 -0)
(45.4231 4.36693e-05 -0)
(45.423 3.36346e-05 -0)
(45.4229 2.10149e-05 -0)
(45.4228 7.25818e-06 -0)
(45.4231 -1.14705e-05 -0)
(45.4231 3.08769e-05 -0)
(45.4231 3.87569e-05 -0)
(45.4231 1.92854e-05 -0)
(45.4231 6.24221e-06 -0)
(45.4231 1.29545e-05 -0)
(45.4231 3.07836e-05 -0)
(45.4231 3.63775e-05 -0)
(45.4231 2.07042e-05 -0)
(45.4231 -5.33115e-06 -0)
(45.4231 -2.44519e-05 -0)
(45.4231 -2.63068e-05 -0)
(45.423 -1.38117e-05 -0)
(45.4231 4.22027e-07 -0)
(45.4232 3.82776e-06 -0)
(45.4231 -8.11426e-06 -0)
(45.4231 -3.01936e-05 -0)
(45.4231 -5.17522e-05 -0)
(45.4231 -6.33631e-05 -0)
(45.4232 -6.18507e-05 -0)
(45.4231 -5.11935e-05 -0)
(45.4231 -3.92872e-05 -0)
(45.4231 -3.31026e-05 -0)
(45.4231 -3.54097e-05 -0)
(45.4232 -4.42163e-05 -0)
(45.4232 -5.4328e-05 -0)
(45.4232 -6.00605e-05 -0)
(45.4231 -5.77765e-05 -0)
(45.423 -4.69506e-05 -0)
(45.4229 -2.9579e-05 -0)
(45.423 -8.90058e-06 -0)
(45.423 1.16447e-05 -0)
(45.4231 2.90489e-05 -0)
(45.4232 4.11642e-05 -0)
(45.4232 4.69619e-05 -0)
(45.4232 4.65272e-05 -0)
(45.4231 4.08236e-05 -0)
(45.423 3.13192e-05 -0)
(45.4229 1.95517e-05 -0)
(45.4228 6.73294e-06 -0)
(45.4231 2.41218e-05 -0)
(45.4231 -1.06013e-07 -0)
(45.4231 4.17925e-06 -0)
(45.4231 1.25586e-05 -0)
(45.4231 2.43912e-05 -0)
(45.4231 3.36511e-05 -0)
(45.4231 3.35769e-05 -0)
(45.4231 2.11921e-05 -0)
(45.4231 1.89866e-06 -0)
(45.4231 -1.29866e-05 -0)
(45.4231 -1.55781e-05 -0)
(45.4231 -7.01466e-06 -0)
(45.423 4.25764e-06 -0)
(45.4231 8.50894e-06 -0)
(45.4232 7.9563e-07 -0)
(45.4231 -1.6541e-05 -0)
(45.423 -3.59361e-05 -0)
(45.423 -4.93387e-05 -0)
(45.4231 -5.25432e-05 -0)
(45.4232 -4.69566e-05 -0)
(45.4231 -3.83326e-05 -0)
(45.4231 -3.32263e-05 -0)
(45.4231 -3.53168e-05 -0)
(45.4231 -4.40431e-05 -0)
(45.4232 -5.56858e-05 -0)
(45.4232 -6.5332e-05 -0)
(45.4232 -6.87418e-05 -0)
(45.4231 -6.37626e-05 -0)
(45.423 -5.08168e-05 -0)
(45.423 -3.22917e-05 -0)
(45.423 -1.14185e-05 -0)
(45.4231 8.62766e-06 -0)
(45.4231 2.52243e-05 -0)
(45.4232 3.65918e-05 -0)
(45.4232 4.19672e-05 -0)
(45.4232 4.15856e-05 -0)
(45.4231 3.64552e-05 -0)
(45.423 2.79835e-05 -0)
(45.4229 1.75152e-05 -0)
(45.4228 6.02011e-06 -0)
(45.4231 2.09714e-05 -0)
(45.4231 2.9388e-06 -0)
(45.4231 9.27635e-06 -0)
(45.4231 2.31781e-05 -0)
(45.4231 3.23721e-05 -0)
(45.4231 3.08073e-05 -0)
(45.4231 1.94962e-05 -0)
(45.4231 4.71447e-06 -0)
(45.4231 -6.12378e-06 -0)
(45.4231 -8.15767e-06 -0)
(45.4231 -1.86581e-06 -0)
(45.4231 7.09631e-06 -0)
(45.4231 1.14622e-05 -0)
(45.4231 6.71708e-06 -0)
(45.4232 -6.43753e-06 -0)
(45.4231 -2.27255e-05 -0)
(45.423 -3.55215e-05 -0)
(45.423 -4.06064e-05 -0)
(45.4231 -3.80758e-05 -0)
(45.4232 -3.17056e-05 -0)
(45.4231 -2.6879e-05 -0)
(45.4231 -2.79653e-05 -0)
(45.4231 -3.60785e-05 -0)
(45.4231 -4.88093e-05 -0)
(45.4232 -6.18868e-05 -0)
(45.4232 -7.10719e-05 -0)
(45.4232 -7.33245e-05 -0)
(45.4231 -6.74289e-05 -0)
(45.423 -5.41798e-05 -0)
(45.423 -3.59492e-05 -0)
(45.423 -1.58172e-05 -0)
(45.4231 3.24277e-06 -0)
(45.4232 1.88669e-05 -0)
(45.4232 2.9555e-05 -0)
(45.4232 3.47654e-05 -0)
(45.4232 3.48439e-05 -0)
(45.4231 3.07715e-05 -0)
(45.423 2.37965e-05 -0)
(45.4229 1.50202e-05 -0)
(45.4228 5.19378e-06 -0)
(45.4231 1.59766e-05 -0)
(45.4231 1.74132e-05 -0)
(45.4231 2.16158e-05 -0)
(45.4231 2.59088e-05 -0)
(45.4231 2.42225e-05 -0)
(45.4231 1.57011e-05 -0)
(45.4231 4.59531e-06 -0)
(45.4231 -3.24068e-06 -0)
(45.4231 -4.29971e-06 -0)
(45.4231 7.81419e-07 -0)
(45.4231 7.88932e-06 -0)
(45.4231 1.17021e-05 -0)
(45.423 8.59727e-06 -0)
(45.4231 -1.38293e-06 -0)
(45.4232 -1.46428e-05 -0)
(45.4231 -2.59874e-05 -0)
(45.423 -3.13651e-05 -0)
(45.423 -3.00352e-05 -0)
(45.4231 -2.46989e-05 -0)
(45.4232 -1.96065e-05 -0)
(45.4231 -1.85962e-05 -0)
(45.4231 -2.38638e-05 -0)
(45.423 -3.50255e-05 -0)
(45.4231 -4.92014e-05 -0)
(45.4232 -6.24173e-05 -0)
(45.4232 -7.11656e-05 -0)
(45.4232 -7.32187e-05 -0)
(45.4231 -6.78799e-05 -0)
(45.423 -5.59829e-05 -0)
(45.423 -3.95903e-05 -0)
(45.423 -2.13906e-05 -0)
(45.4231 -4.04313e-06 -0)
(45.4232 1.03135e-05 -0)
(45.4232 2.03459e-05 -0)
(45.4232 2.56182e-05 -0)
(45.4232 2.64989e-05 -0)
(45.4231 2.38739e-05 -0)
(45.423 1.87698e-05 -0)
(45.4229 1.20269e-05 -0)
(45.4228 4.22938e-06 -0)
(45.4231 1.60125e-05 -0)
(45.4231 2.22317e-05 -0)
(45.4231 2.11926e-05 -0)
(45.4231 1.67043e-05 -0)
(45.4231 9.75055e-06 -0)
(45.4231 2.36454e-06 -0)
(45.4231 -2.41688e-06 -0)
(45.4231 -2.46331e-06 -0)
(45.4231 1.79911e-06 -0)
(45.4231 7.35685e-06 -0)
(45.4232 1.02517e-05 -0)
(45.4231 7.70283e-06 -0)
(45.423 -3.88933e-07 -0)
(45.4231 -1.13617e-05 -0)
(45.4232 -2.12238e-05 -0)
(45.4231 -2.66051e-05 -0)
(45.423 -2.61973e-05 -0)
(45.423 -2.14362e-05 -0)
(45.4231 -1.58628e-05 -0)
(45.4232 -1.30205e-05 -0)
(45.4231 -1.49264e-05 -0)
(45.4231 -2.20158e-05 -0)
(45.423 -3.32448e-05 -0)
(45.4231 -4.62416e-05 -0)
(45.4231 -5.80242e-05 -0)
(45.4232 -6.59414e-05 -0)
(45.4232 -6.82835e-05 -0)
(45.4231 -6.45266e-05 -0)
(45.4231 -5.53172e-05 -0)
(45.423 -4.22127e-05 -0)
(45.423 -2.72622e-05 -0)
(45.4231 -1.2579e-05 -0)
(45.4232 2.19913e-08 -0)
(45.4232 9.3122e-06 -0)
(45.4232 1.48151e-05 -0)
(45.4232 1.67741e-05 -0)
(45.4231 1.58889e-05 -0)
(45.4229 1.29313e-05 -0)
(45.4228 8.49806e-06 -0)
(45.4228 3.07105e-06 -0)
(45.4231 1.26817e-05 -0)
(45.4231 1.45669e-05 -0)
(45.4231 1.07173e-05 -0)
(45.4231 4.85143e-06 -0)
(45.4231 -8.09131e-08 -0)
(45.4231 -2.21178e-06 -0)
(45.4231 -9.12905e-07 -0)
(45.4231 2.96678e-06 -0)
(45.4231 7.21379e-06 -0)
(45.4231 9.06205e-06 -0)
(45.4231 6.545e-06 -0)
(45.4231 -4.55298e-07 -0)
(45.423 -9.99208e-06 -0)
(45.4231 -1.88601e-05 -0)
(45.4231 -2.42035e-05 -0)
(45.4231 -2.48698e-05 -0)
(45.423 -2.15707e-05 -0)
(45.423 -1.65062e-05 -0)
(45.4231 -1.27411e-05 -0)
(45.4232 -1.25811e-05 -0)
(45.4231 -1.64761e-05 -0)
(45.4231 -2.36007e-05 -0)
(45.423 -3.26527e-05 -0)
(45.4231 -4.21779e-05 -0)
(45.4231 -5.06866e-05 -0)
(45.4232 -5.67479e-05 -0)
(45.4232 -5.91906e-05 -0)
(45.4231 -5.74474e-05 -0)
(45.4231 -5.17614e-05 -0)
(45.423 -4.30319e-05 -0)
(45.4231 -3.24939e-05 -0)
(45.4231 -2.14905e-05 -0)
(45.4232 -1.13278e-05 -0)
(45.4232 -3.07493e-06 -0)
(45.4232 2.67113e-06 -0)
(45.4232 5.88397e-06 -0)
(45.4231 6.95461e-06 -0)
(45.4229 6.36012e-06 -0)
(45.4228 4.47386e-06 -0)
(45.4228 1.70767e-06 -0)
(45.4231 4.96655e-06 -0)
(45.4231 3.75493e-06 -0)
(45.4231 1.34406e-06 -0)
(45.4231 -7.73657e-07 -0)
(45.4231 -8.85869e-07 -0)
(45.4231 1.45416e-06 -0)
(45.4231 5.27363e-06 -0)
(45.4231 8.6953e-06 -0)
(45.4231 9.72861e-06 -0)
(45.4231 7.10719e-06 -0)
(45.4231 9.44915e-07 -0)
(45.4231 -7.26839e-06 -0)
(45.423 -1.52362e-05 -0)
(45.4231 -2.0662e-05 -0)
(45.4231 -2.22743e-05 -0)
(45.4231 -2.05653e-05 -0)
(45.423 -1.72553e-05 -0)
(45.4231 -1.43538e-05 -0)
(45.4231 -1.38343e-05 -0)
(45.4232 -1.66871e-05 -0)
(45.4231 -2.22e-05 -0)
(45.423 -2.87173e-05 -0)
(45.423 -3.47293e-05 -0)
(45.423 -3.95261e-05 -0)
(45.4231 -4.3186e-05 -0)
(45.4232 -4.59228e-05 -0)
(45.4232 -4.75178e-05 -0)
(45.4231 -4.7469e-05 -0)
(45.4231 -4.54823e-05 -0)
(45.423 -4.16387e-05 -0)
(45.4231 -3.62432e-05 -0)
(45.4231 -2.97416e-05 -0)
(45.4232 -2.27665e-05 -0)
(45.4232 -1.60851e-05 -0)
(45.4232 -1.03601e-05 -0)
(45.4232 -5.93145e-06 -0)
(45.4231 -2.81084e-06 -0)
(45.4229 -8.74092e-07 -0)
(45.4228 1.87406e-08 -0)
(45.4228 1.75611e-07 -0)
(45.4231 -9.65059e-07 -0)
(45.4231 -1.27821e-06 -0)
(45.4231 -2.80096e-07 -0)
(45.4231 1.80613e-06 -0)
(45.4231 5.01997e-06 -0)
(45.4231 8.70243e-06 -0)
(45.4231 1.15462e-05 -0)
(45.4231 1.21648e-05 -0)
(45.4231 9.74621e-06 -0)
(45.4231 4.48013e-06 -0)
(45.4231 -2.34794e-06 -0)
(45.4231 -8.89228e-06 -0)
(45.423 -1.36073e-05 -0)
(45.4231 -1.56903e-05 -0)
(45.4231 -1.5223e-05 -0)
(45.4231 -1.34086e-05 -0)
(45.423 -1.20145e-05 -0)
(45.4231 -1.24329e-05 -0)
(45.4231 -1.56475e-05 -0)
(45.4232 -2.16671e-05 -0)
(45.4231 -2.90145e-05 -0)
(45.423 -3.54773e-05 -0)
(45.423 -3.9208e-05 -0)
(45.423 -3.96855e-05 -0)
(45.4231 -3.8063e-05 -0)
(45.4232 -3.62682e-05 -0)
(45.4232 -3.55876e-05 -0)
(45.4231 -3.61163e-05 -0)
(45.4231 -3.72123e-05 -0)
(45.423 -3.80703e-05 -0)
(45.4231 -3.79647e-05 -0)
(45.4231 -3.6379e-05 -0)
(45.4232 -3.31879e-05 -0)
(45.4232 -2.87169e-05 -0)
(45.4232 -2.35477e-05 -0)
(45.4232 -1.8241e-05 -0)
(45.4231 -1.31999e-05 -0)
(45.4229 -8.68662e-06 -0)
(45.4228 -4.82693e-06 -0)
(45.4228 -1.49219e-06 -0)
(45.4231 -8.13216e-07 -0)
(45.4231 1.35751e-06 -0)
(45.4231 4.78401e-06 -0)
(45.4231 8.66338e-06 -0)
(45.4231 1.22126e-05 -0)
(45.4231 1.45357e-05 -0)
(45.4231 1.48425e-05 -0)
(45.4231 1.27925e-05 -0)
(45.4231 8.70042e-06 -0)
(45.4231 3.47971e-06 -0)
(45.4231 -1.51148e-06 -0)
(45.4231 -4.90768e-06 -0)
(45.423 -6.13493e-06 -0)
(45.4231 -5.69594e-06 -0)
(45.4232 -4.62739e-06 -0)
(45.4231 -4.16133e-06 -0)
(45.423 -5.35319e-06 -0)
(45.423 -8.72237e-06 -0)
(45.4231 -1.47528e-05 -0)
(45.4232 -2.32631e-05 -0)
(45.4231 -3.25975e-05 -0)
(45.423 -4.01774e-05 -0)
(45.423 -4.36048e-05 -0)
(45.4231 -4.18838e-05 -0)
(45.4231 -3.63354e-05 -0)
(45.4232 -3.00354e-05 -0)
(45.4232 -2.59549e-05 -0)
(45.4231 -2.54795e-05 -0)
(45.4231 -2.8258e-05 -0)
(45.423 -3.2877e-05 -0)
(45.4231 -3.75877e-05 -0)
(45.4231 -4.08514e-05 -0)
(45.4232 -4.1723e-05 -0)
(45.4232 -3.99869e-05 -0)
(45.4232 -3.59955e-05 -0)
(45.4232 -3.03694e-05 -0)
(45.4231 -2.37849e-05 -0)
(45.423 -1.68507e-05 -0)
(45.4228 -9.97884e-06 -0)
(45.4228 -3.27802e-06 -0)
(45.4231 4.09781e-06 -0)
(45.4231 7.62251e-06 -0)
(45.4231 1.12055e-05 -0)
(45.4231 1.42449e-05 -0)
(45.4231 1.60226e-05 -0)
(45.4231 1.6048e-05 -0)
(45.4231 1.42475e-05 -0)
(45.4231 1.10867e-05 -0)
(45.4231 7.45631e-06 -0)
(45.4231 4.26811e-06 -0)
(45.4231 2.20407e-06 -0)
(45.4231 1.79375e-06 -0)
(45.423 3.05995e-06 -0)
(45.4231 4.98469e-06 -0)
(45.4232 5.94312e-06 -0)
(45.4231 4.67868e-06 -0)
(45.423 1.13969e-06 -0)
(45.423 -3.86363e-06 -0)
(45.4231 -1.0478e-05 -0)
(45.4232 -1.9284e-05 -0)
(45.4231 -2.95444e-05 -0)
(45.423 -3.88476e-05 -0)
(45.423 -4.41126e-05 -0)
(45.4231 -4.32513e-05 -0)
(45.4231 -3.67453e-05 -0)
(45.4232 -2.77512e-05 -0)
(45.4232 -2.04015e-05 -0)
(45.4231 -1.76848e-05 -0)
(45.4231 -2.03535e-05 -0)
(45.423 -2.71147e-05 -0)
(45.4231 -3.55442e-05 -0)
(45.4231 -4.31206e-05 -0)
(45.4232 -4.79923e-05 -0)
(45.4232 -4.92856e-05 -0)
(45.4232 -4.69871e-05 -0)
(45.4232 -4.16273e-05 -0)
(45.4231 -3.4005e-05 -0)
(45.423 -2.4977e-05 -0)
(45.4229 -1.52301e-05 -0)
(45.4228 -5.13362e-06 -0)
(45.4231 9.28846e-06 -0)
(45.4231 1.21899e-05 -0)
(45.4231 1.41874e-05 -0)
(45.4231 1.51141e-05 -0)
(45.4231 1.47273e-05 -0)
(45.4231 1.30965e-05 -0)
(45.4231 1.06031e-05 -0)
(45.4231 7.92852e-06 -0)
(45.4231 5.96447e-06 -0)
(45.423 5.33072e-06 -0)
(45.4231 5.87193e-06 -0)
(45.4231 7.15122e-06 -0)
(45.423 9.08187e-06 -0)
(45.4231 1.12743e-05 -0)
(45.4232 1.21312e-05 -0)
(45.4231 9.74358e-06 -0)
(45.423 4.43828e-06 -0)
(45.423 -1.17634e-06 -0)
(45.4231 -6.1007e-06 -0)
(45.4232 -1.18684e-05 -0)
(45.4231 -2.00232e-05 -0)
(45.423 -2.97094e-05 -0)
(45.423 -3.76378e-05 -0)
(45.4231 -4.02447e-05 -0)
(45.4231 -3.62649e-05 -0)
(45.4232 -2.77356e-05 -0)
(45.4232 -1.88772e-05 -0)
(45.4231 -1.38851e-05 -0)
(45.4231 -1.50536e-05 -0)
(45.423 -2.20824e-05 -0)
(45.423 -3.2618e-05 -0)
(45.4231 -4.35014e-05 -0)
(45.4232 -5.1982e-05 -0)
(45.4232 -5.63799e-05 -0)
(45.4232 -5.61404e-05 -0)
(45.4232 -5.15479e-05 -0)
(45.4231 -4.33893e-05 -0)
(45.423 -3.2666e-05 -0)
(45.4229 -2.03082e-05 -0)
(45.4228 -6.96451e-06 -0)
(45.4231 1.11586e-05 -0)
(45.4231 1.22582e-05 -0)
(45.4231 1.23028e-05 -0)
(45.4231 1.14153e-05 -0)
(45.4231 9.76607e-06 -0)
(45.4231 7.78314e-06 -0)
(45.4231 5.94287e-06 -0)
(45.4231 4.61776e-06 -0)
(45.4231 4.27818e-06 -0)
(45.4231 5.38718e-06 -0)
(45.4231 7.44114e-06 -0)
(45.4231 9.00407e-06 -0)
(45.423 9.63242e-06 -0)
(45.4231 1.05068e-05 -0)
(45.4231 1.13874e-05 -0)
(45.4231 9.19089e-06 -0)
(45.423 2.88569e-06 -0)
(45.423 -3.5584e-06 -0)
(45.4231 -6.491e-06 -0)
(45.4231 -6.88534e-06 -0)
(45.4231 -8.94e-06 -0)
(45.423 -1.52921e-05 -0)
(45.423 -2.41372e-05 -0)
(45.4231 -3.08726e-05 -0)
(45.4232 -3.19072e-05 -0)
(45.4232 -2.70767e-05 -0)
(45.4232 -1.94698e-05 -0)
(45.4231 -1.35574e-05 -0)
(45.4231 -1.29445e-05 -0)
(45.423 -1.88202e-05 -0)
(45.423 -2.97235e-05 -0)
(45.4231 -4.25212e-05 -0)
(45.4232 -5.38453e-05 -0)
(45.4232 -6.11727e-05 -0)
(45.4232 -6.32192e-05 -0)
(45.4232 -5.98209e-05 -0)
(45.4231 -5.16022e-05 -0)
(45.423 -3.9611e-05 -0)
(45.4229 -2.49817e-05 -0)
(45.4228 -8.67248e-06 -0)
(45.4231 9.15652e-06 -0)
(45.4231 8.64755e-06 -0)
(45.4231 7.5903e-06 -0)
(45.4231 6.13918e-06 -0)
(45.4231 4.57744e-06 -0)
(45.4231 3.37314e-06 -0)
(45.4231 2.92507e-06 -0)
(45.4231 3.12115e-06 -0)
(45.4231 3.69068e-06 -0)
(45.4231 5.07651e-06 -0)
(45.4231 7.4585e-06 -0)
(45.4231 8.8218e-06 -0)
(45.423 7.11731e-06 -0)
(45.4231 4.86066e-06 -0)
(45.4231 5.22421e-06 -0)
(45.4231 4.74259e-06 -0)
(45.423 -1.13666e-06 -0)
(45.423 -9.34897e-06 -0)
(45.4231 -1.29012e-05 -0)
(45.4232 -9.30143e-06 -0)
(45.4231 -3.41458e-06 -0)
(45.423 -2.19195e-06 -0)
(45.423 -7.81238e-06 -0)
(45.423 -1.65389e-05 -0)
(45.4232 -2.28311e-05 -0)
(45.4232 -2.36254e-05 -0)
(45.4232 -1.97828e-05 -0)
(45.4231 -1.49774e-05 -0)
(45.423 -1.34159e-05 -0)
(45.423 -1.76779e-05 -0)
(45.423 -2.76534e-05 -0)
(45.4231 -4.09094e-05 -0)
(45.4232 -5.39838e-05 -0)
(45.4232 -6.37185e-05 -0)
(45.4232 -6.80419e-05 -0)
(45.4232 -6.61542e-05 -0)
(45.4231 -5.83293e-05 -0)
(45.423 -4.55388e-05 -0)
(45.4229 -2.90625e-05 -0)
(45.4228 -1.01819e-05 -0)
(45.4231 5.4318e-06 -0)
(45.4231 4.53218e-06 -0)
(45.4231 3.74381e-06 -0)
(45.4231 3.10688e-06 -0)
(45.4231 2.73859e-06 -0)
(45.4231 2.85405e-06 -0)
(45.4231 3.82338e-06 -0)
(45.4231 5.38176e-06 -0)
(45.4231 6.33172e-06 -0)
(45.4231 6.62196e-06 -0)
(45.4231 8.17959e-06 -0)
(45.4231 1.00601e-05 -0)
(45.423 7.00432e-06 -0)
(45.4231 3.919e-07 -0)
(45.4231 -1.42842e-06 -0)
(45.4231 7.14646e-07 -0)
(45.423 -2.11719e-06 -0)
(45.423 -1.16615e-05 -0)
(45.4231 -1.9462e-05 -0)
(45.4232 -1.73267e-05 -0)
(45.4231 -6.74349e-06 -0)
(45.423 3.08669e-06 -0)
(45.423 4.6817e-06 -0)
(45.423 -1.9226e-06 -0)
(45.4231 -1.11666e-05 -0)
(45.4232 -1.73887e-05 -0)
(45.4232 -1.85192e-05 -0)
(45.4231 -1.64659e-05 -0)
(45.423 -1.5202e-05 -0)
(45.423 -1.82143e-05 -0)
(45.423 -2.6723e-05 -0)
(45.4231 -3.9357e-05 -0)
(45.4232 -5.30542e-05 -0)
(45.4232 -6.43969e-05 -0)
(45.4232 -7.06711e-05 -0)
(45.4232 -7.03842e-05 -0)
(45.4231 -6.33051e-05 -0)
(45.423 -5.01881e-05 -0)
(45.4229 -3.237e-05 -0)
(45.4229 -1.14276e-05 -0)
(45.4231 2.99369e-06 -0)
(45.4231 3.14564e-06 -0)
(45.4231 3.71635e-06 -0)
(45.4231 4.6909e-06 -0)
(45.4231 5.96344e-06 -0)
(45.4231 7.26519e-06 -0)
(45.4231 8.94794e-06 -0)
(45.4231 1.13971e-05 -0)
(45.4231 1.28558e-05 -0)
(45.4231 1.13487e-05 -0)
(45.4231 1.04453e-05 -0)
(45.4231 1.36867e-05 -0)
(45.423 1.25679e-05 -0)
(45.4231 2.33193e-06 -0)
(45.4231 -4.18604e-06 -0)
(45.4231 -3.36939e-07 -0)
(45.423 3.09237e-06 -0)
(45.423 -4.00203e-06 -0)
(45.4231 -1.65643e-05 -0)
(45.4232 -2.16333e-05 -0)
(45.4231 -1.37695e-05 -0)
(45.423 1.5925e-07 -0)
(45.423 9.16641e-06 -0)
(45.423 7.95719e-06 -0)
(45.4231 -6.83009e-07 -0)
(45.4232 -1.02365e-05 -0)
(45.4232 -1.59192e-05 -0)
(45.4231 -1.72464e-05 -0)
(45.423 -1.71846e-05 -0)
(45.423 -1.95438e-05 -0)
(45.423 -2.65926e-05 -0)
(45.4231 -3.8057e-05 -0)
(45.4232 -5.15415e-05 -0)
(45.4232 -6.36985e-05 -0)
(45.4232 -7.14127e-05 -0)
(45.4232 -7.25856e-05 -0)
(45.4231 -6.64358e-05 -0)
(45.423 -5.33944e-05 -0)
(45.4229 -3.4763e-05 -0)
(45.4229 -1.23533e-05 -0)
(45.4231 3.76239e-06 -0)
(45.4231 5.79691e-06 -0)
(45.4231 7.93049e-06 -0)
(45.4231 1.0272e-05 -0)
(45.4231 1.27575e-05 -0)
(45.4231 1.45661e-05 -0)
(45.4231 1.55893e-05 -0)
(45.4231 1.76752e-05 -0)
(45.4231 2.02156e-05 -0)
(45.4231 1.75637e-05 -0)
(45.4231 1.17961e-05 -0)
(45.4231 1.51526e-05 -0)
(45.423 2.02264e-05 -0)
(45.4231 1.04314e-05 -0)
(45.4231 -2.6167e-06 -0)
(45.4231 -9.34417e-07 -0)
(45.423 9.77902e-06 -0)
(45.423 1.12471e-05 -0)
(45.4231 -7.17506e-07 -0)
(45.4232 -1.3372e-05 -0)
(45.4231 -1.42935e-05 -0)
(45.423 -3.82443e-06 -0)
(45.423 7.92038e-06 -0)
(45.423 1.16933e-05 -0)
(45.4231 5.91543e-06 -0)
(45.4232 -4.40586e-06 -0)
(45.4232 -1.31375e-05 -0)
(45.4231 -1.75064e-05 -0)
(45.423 -1.8948e-05 -0)
(45.423 -2.1034e-05 -0)
(45.423 -2.67345e-05 -0)
(45.4231 -3.67713e-05 -0)
(45.4231 -4.95079e-05 -0)
(45.4232 -6.18661e-05 -0)
(45.4232 -7.05312e-05 -0)
(45.4232 -7.29309e-05 -0)
(45.4231 -6.7771e-05 -0)
(45.423 -5.51211e-05 -0)
(45.423 -3.61795e-05 -0)
(45.4229 -1.29272e-05 -0)
(45.4231 7.54969e-06 -0)
(45.4231 1.11457e-05 -0)
(45.4231 1.40031e-05 -0)
(45.4231 1.64107e-05 -0)
(45.4231 1.88626e-05 -0)
(45.4231 2.0406e-05 -0)
(45.4231 1.93874e-05 -0)
(45.4231 1.87391e-05 -0)
(45.4231 2.25328e-05 -0)
(45.423 2.18296e-05 -0)
(45.4231 9.68299e-06 -0)
(45.4231 8.07805e-06 -0)
(45.423 2.10286e-05 -0)
(45.4231 1.90043e-05 -0)
(45.4231 1.43094e-06 -0)
(45.4231 -4.78382e-06 -0)
(45.423 8.3427e-06 -0)
(45.423 2.12724e-05 -0)
(45.4231 1.8285e-05 -0)
(45.4232 4.95278e-06 -0)
(45.4231 -3.82204e-06 -0)
(45.423 -1.23277e-06 -0)
(45.423 7.39361e-06 -0)
(45.423 1.24434e-05 -0)
(45.4231 8.95181e-06 -0)
(45.4232 -8.37588e-07 -0)
(45.4232 -1.11441e-05 -0)
(45.4231 -1.77891e-05 -0)
(45.423 -2.06437e-05 -0)
(45.423 -2.26155e-05 -0)
(45.423 -2.70111e-05 -0)
(45.423 -3.5403e-05 -0)
(45.4231 -4.69566e-05 -0)
(45.4232 -5.90033e-05 -0)
(45.4232 -6.81838e-05 -0)
(45.4232 -7.1569e-05 -0)
(45.4231 -6.74085e-05 -0)
(45.4231 -5.54101e-05 -0)
(45.423 -3.66264e-05 -0)
(45.4229 -1.3146e-05 -0)
(45.4231 1.24207e-05 -0)
(45.4231 1.61548e-05 -0)
(45.4231 1.83669e-05 -0)
(45.4231 1.91951e-05 -0)
(45.4231 2.00465e-05 -0)
(45.4231 2.12286e-05 -0)
(45.4231 1.85079e-05 -0)
(45.4231 1.24604e-05 -0)
(45.4231 1.56661e-05 -0)
(45.423 2.25918e-05 -0)
(45.4231 7.70882e-06 -0)
(45.4231 -5.80338e-06 -0)
(45.423 9.56829e-06 -0)
(45.4231 2.16665e-05 -0)
(45.4231 8.00469e-06 -0)
(45.4231 -7.90278e-06 -0)
(45.423 -2.16909e-06 -0)
(45.423 1.58287e-05 -0)
(45.4231 2.46505e-05 -0)
(45.4231 1.91269e-05 -0)
(45.4231 9.95756e-06 -0)
(45.423 7.26962e-06 -0)
(45.423 1.10322e-05 -0)
(45.423 1.4193e-05 -0)
(45.4231 1.09346e-05 -0)
(45.4232 1.38897e-06 -0)
(45.4232 -9.81714e-06 -0)
(45.4231 -1.81047e-05 -0)
(45.423 -2.21998e-05 -0)
(45.423 -2.41936e-05 -0)
(45.423 -2.73971e-05 -0)
(45.423 -3.40266e-05 -0)
(45.4231 -4.40411e-05 -0)
(45.4232 -5.53046e-05 -0)
(45.4232 -6.45715e-05 -0)
(45.4232 -6.86787e-05 -0)
(45.4232 -6.54874e-05 -0)
(45.4231 -5.43551e-05 -0)
(45.423 -3.61575e-05 -0)
(45.423 -1.30274e-05 -0)
(45.4231 1.62081e-05 -0)
(45.4231 1.8324e-05 -0)
(45.4231 1.90763e-05 -0)
(45.4231 1.77171e-05 -0)
(45.4231 1.58357e-05 -0)
(45.4231 1.73619e-05 -0)
(45.4231 1.68862e-05 -0)
(45.4231 5.24592e-06 -0)
(45.4231 2.0276e-06 -0)
(45.423 2.04722e-05 -0)
(45.4231 1.45407e-05 -0)
(45.4231 -1.16913e-05 -0)
(45.423 -6.5414e-06 -0)
(45.4231 1.64019e-05 -0)
(45.4231 1.71602e-05 -0)
(45.4231 1.58398e-07 -0)
(45.423 -6.19835e-06 -0)
(45.423 4.39766e-06 -0)
(45.4231 1.64562e-05 -0)
(45.4231 1.89168e-05 -0)
(45.4231 1.51948e-05 -0)
(45.423 1.3378e-05 -0)
(45.423 1.55582e-05 -0)
(45.423 1.7216e-05 -0)
(45.4231 1.33602e-05 -0)
(45.4232 3.49738e-06 -0)
(45.4232 -8.50877e-06 -0)
(45.4231 -1.80774e-05 -0)
(45.423 -2.32417e-05 -0)
(45.423 -2.53726e-05 -0)
(45.423 -2.75906e-05 -0)
(45.423 -3.25246e-05 -0)
(45.4231 -4.08324e-05 -0)
(45.4232 -5.09692e-05 -0)
(45.4232 -5.99438e-05 -0)
(45.4232 -6.45019e-05 -0)
(45.4232 -6.22086e-05 -0)
(45.4231 -5.21037e-05 -0)
(45.423 -3.48647e-05 -0)
(45.423 -1.26045e-05 -0)
(45.4231 1.82308e-05 -0)
(45.4231 1.77622e-05 -0)
(45.4231 1.7645e-05 -0)
(45.4231 1.57902e-05 -0)
(45.4231 1.10068e-05 -0)
(45.4231 1.21979e-05 -0)
(45.4231 2.02778e-05 -0)
(45.4231 9.4254e-06 -0)
(45.4231 -8.74987e-06 -0)
(45.4231 1.39992e-05 -0)
(45.4231 2.93859e-05 -0)
(45.4231 4.20615e-06 -0)
(45.423 -9.28074e-06 -0)
(45.4231 7.9643e-06 -0)
(45.4231 2.23504e-05 -0)
(45.4231 1.78764e-05 -0)
(45.423 9.25695e-06 -0)
(45.423 8.73227e-06 -0)
(45.4231 1.23379e-05 -0)
(45.4231 1.29884e-05 -0)
(45.4231 1.13189e-05 -0)
(45.423 1.19908e-05 -0)
(45.423 1.58121e-05 -0)
(45.423 1.84253e-05 -0)
(45.4231 1.51253e-05 -0)
(45.4232 5.34992e-06 -0)
(45.4232 -7.18536e-06 -0)
(45.4231 -1.77199e-05 -0)
(45.423 -2.37273e-05 -0)
(45.423 -2.59758e-05 -0)
(45.423 -2.734e-05 -0)
(45.423 -3.06986e-05 -0)
(45.4231 -3.72774e-05 -0)
(45.4232 -4.61023e-05 -0)
(45.4232 -5.45163e-05 -0)
(45.4232 -5.92957e-05 -0)
(45.4232 -5.78143e-05 -0)
(45.4231 -4.88481e-05 -0)
(45.423 -3.2872e-05 -0)
(45.423 -1.19223e-05 -0)
(45.4231 1.98582e-05 -0)
(45.4231 1.72149e-05 -0)
(45.4231 1.74575e-05 -0)
(45.4231 1.88145e-05 -0)
(45.4231 1.26273e-05 -0)
(45.4231 7.84832e-06 -0)
(45.4231 2.54191e-05 -0)
(45.4231 2.92242e-05 -0)
(45.4231 -5.00746e-06 -0)
(45.4231 1.4586e-06 -0)
(45.4231 3.21444e-05 -0)
(45.4231 2.93634e-05 -0)
(45.423 9.6594e-06 -0)
(45.4231 6.41371e-06 -0)
(45.4231 1.57427e-05 -0)
(45.4231 2.36039e-05 -0)
(45.423 2.72354e-05 -0)
(45.423 2.80867e-05 -0)
(45.4231 2.48275e-05 -0)
(45.4231 1.73128e-05 -0)
(45.4231 1.01731e-05 -0)
(45.423 8.66846e-06 -0)
(45.423 1.27272e-05 -0)
(45.423 1.68082e-05 -0)
(45.4231 1.51207e-05 -0)
(45.4231 6.33342e-06 -0)
(45.4231 -6.1125e-06 -0)
(45.4231 -1.72006e-05 -0)
(45.423 -2.38023e-05 -0)
(45.423 -2.60828e-05 -0)
(45.423 -2.66365e-05 -0)
(45.423 -2.85003e-05 -0)
(45.4231 -3.33679e-05 -0)
(45.4232 -4.07898e-05 -0)
(45.4232 -4.84724e-05 -0)
(45.4232 -5.3304e-05 -0)
(45.4232 -5.25571e-05 -0)
(45.4231 -4.48034e-05 -0)
(45.4231 -3.03238e-05 -0)
(45.423 -1.10334e-05 -0)
(45.4231 2.30447e-05 -0)
(45.4231 1.95709e-05 -0)
(45.4231 1.92248e-05 -0)
(45.4231 2.63051e-05 -0)
(45.4231 2.39923e-05 -0)
(45.4231 4.91514e-06 -0)
(45.4231 1.76944e-05 -0)
(45.4231 4.69788e-05 -0)
(45.4231 1.60718e-05 -0)
(45.4231 -5.71722e-06 -0)
(45.4231 8.29804e-06 -0)
(45.423 2.85857e-05 -0)
(45.423 3.1205e-05 -0)
(45.4231 1.91402e-05 -0)
(45.4231 7.27379e-06 -0)
(45.4231 7.66022e-06 -0)
(45.423 2.01353e-05 -0)
(45.423 3.35264e-05 -0)
(45.4231 3.66453e-05 -0)
(45.4231 2.81203e-05 -0)
(45.4231 1.6154e-05 -0)
(45.423 9.8175e-06 -0)
(45.423 1.11353e-05 -0)
(45.423 1.48228e-05 -0)
(45.4231 1.4154e-05 -0)
(45.4231 6.56247e-06 -0)
(45.4231 -5.3099e-06 -0)
(45.4231 -1.65184e-05 -0)
(45.423 -2.34576e-05 -0)
(45.423 -2.56955e-05 -0)
(45.423 -2.54908e-05 -0)
(45.423 -2.59532e-05 -0)
(45.4231 -2.91628e-05 -0)
(45.4232 -3.51515e-05 -0)
(45.4232 -4.19999e-05 -0)
(45.4232 -4.67645e-05 -0)
(45.4232 -4.66876e-05 -0)
(45.4231 -4.01897e-05 -0)
(45.4231 -2.73713e-05 -0)
(45.423 -9.99384e-06 -0)
(45.4231 2.7524e-05 -0)
(45.4231 2.51401e-05 -0)
(45.4231 1.93582e-05 -0)
(45.4231 2.76474e-05 -0)
(45.4231 3.92148e-05 -0)
(45.4231 9.58211e-06 -0)
(45.4231 -6.48347e-06 -0)
(45.4231 3.52782e-05 -0)
(45.423 3.68911e-05 -0)
(45.4231 1.49445e-05 -0)
(45.4231 -1.13548e-05 -0)
(45.4231 -3.4753e-06 -0)
(45.423 2.74235e-05 -0)
(45.4231 3.80358e-05 -0)
(45.4231 1.99018e-05 -0)
(45.4231 9.18075e-07 -0)
(45.423 2.33802e-06 -0)
(45.423 1.81134e-05 -0)
(45.4231 2.98568e-05 -0)
(45.4231 2.83719e-05 -0)
(45.4231 1.89286e-05 -0)
(45.423 1.16989e-05 -0)
(45.423 1.11355e-05 -0)
(45.423 1.37391e-05 -0)
(45.4231 1.32228e-05 -0)
(45.4231 6.44302e-06 -0)
(45.4231 -4.74257e-06 -0)
(45.4231 -1.57377e-05 -0)
(45.423 -2.2725e-05 -0)
(45.423 -2.48009e-05 -0)
(45.423 -2.38802e-05 -0)
(45.423 -2.3063e-05 -0)
(45.4231 -2.47231e-05 -0)
(45.4231 -2.93153e-05 -0)
(45.4232 -3.52904e-05 -0)
(45.4232 -3.99124e-05 -0)
(45.4232 -4.04513e-05 -0)
(45.4231 -3.52234e-05 -0)
(45.4231 -2.41642e-05 -0)
(45.4231 -8.8591e-06 -0)
(45.4231 2.92426e-05 -0)
(45.4231 3.1507e-05 -0)