/*--------------------------------*- C++ -*----------------------------------*\
  =========                 |
  \\      /  F ield         | OpenFOAM: The Open Source CFD Toolbox
   \\    /   O peration     | Website:  https://openfoam.org
    \\  /    A nd           | Version:  7
     \\/     M anipulation  |
\*---------------------------------------------------------------------------*/
FoamFile
{
    version     2.0;
    format      ascii;
    class       volScalarField;
    location    "0";
    object      voltA;
}
// * * * * * * * * * * * * * * * * * * * * * * * * * * * * * * * * * * * * * //

dimensions      [1 2 -3 0 0 -1 0];

internalField   nonuniform List<scalar> 
348515
(
-1992.15
-2072.78
-2285.73
-2670.8
-3231.33
-3901.85
-4546.22
-5046.4
-5373.65
-5562.91
-5674.13
-5766.53
-5865.94
-5973.54
-6090.92
-6220.29
-6364.94
-6530.2
-6725.99
-6976.31
-7363.21
-7528.37
-6670.21
-6187.66
-5818.35
-5509.97
-5241.3
-5001.29
-4783.35
-4583.15
-4397.66
-4224.71
-4062.6
-3910.08
-3766.09
-3629.77
-3500.43
-3377.5
-3260.44
-3148.83
-3042.28
-2940.44
-2843.03
-2749.77
-2660.42
-2574.73
-2492.53
-2413.61
-2337.81
-2264.97
-2194.93
-2127.55
-2062.72
-2000.31
-1940.2
-1882.29
-1826.48
-1772.67
-1720.78
-1670.71
-1622.4
-1575.77
-1530.75
-1487.26
-1445.25
-1404.65
-1365.41
-1327.48
-1290.79
-1255.31
-1220.98
-1187.77
-1155.62
-1124.5
-1094.38
-1065.2
-1036.95
-1009.59
-983.072
-957.386
-932.496
-908.375
-884.998
-862.338
-840.373
-819.08
-798.439
-778.425
-759.02
-740.209
-721.969
-704.283
-687.139
-670.516
-654.4
-638.779
-623.637
-608.96
-594.736
-580.951
-567.595
-554.657
-542.123
-529.984
-518.23
-506.85
-495.834
-485.174
-474.859
-464.881
-455.231
-445.901
-436.88
-428.162
-419.738
-411.599
-403.738
-396.144
-388.808
-381.721
-374.867
-368.235
-361.819
-355.608
-349.595
-343.772
-338.132
-332.669
-327.376
-323.878
-318.904
-314.077
-309.404
-304.874
-300.482
-296.219
-292.091
-288.089
-284.208
-280.443
-276.793
-273.256
-269.828
-266.504
-263.279
-260.156
-257.13
-254.198
-251.355
-248.604
-245.94
-243.361
-240.864
-238.448
-236.113
-233.855
-231.673
-229.565
-227.532
-225.57
-223.679
-221.856
-220.104
-218.419
-216.8
-215.247
-213.758
-212.335
-210.975
-209.679
-208.445
-207.274
-206.165
-205.118
-204.132
-203.209
-202.348
-201.549
-200.811
-200.136
-199.523
-198.974
-198.488
-198.066
-197.709
-197.418
-197.193
-197.035
-196.945
-196.925
-196.976
-197.098
-197.294
-197.564
-197.911
-198.336
-198.841
-199.428
-200.098
-200.854
-201.698
-202.633
-203.659
-204.782
-206.003
-207.323
-208.746
-210.276
-211.915
-213.666
-215.532
-217.515
-219.62
-221.849
-224.205
-226.69
-229.308
-232.065
-234.957
-237.99
-241.166
-244.491
-247.96
-251.577
-255.343
-259.262
-263.331
-267.549
-271.916
-276.431
-281.098
-285.904
-290.851
-295.936
-301.16
-306.507
-311.976
-317.559
-323.254
-329.052
-334.951
-340.94
-347.015
-353.168
-359.388
-365.673
-372.009
-378.396
-384.823
-391.28
-397.763
-404.27
-410.79
-417.314
-423.844
-430.366
-436.883
-443.388
-449.871
-456.336
-462.772
-469.183
-475.562
-481.903
-488.21
-494.474
-500.699
-506.881
-513.015
-519.105
-525.145
-531.138
-537.082
-542.972
-548.814
-554.601
-560.34
-566.022
-571.655
-577.232
-582.759
-588.234
-593.653
-599.022
-604.336
-609.6
-614.813
-619.972
-625.082
-630.139
-635.148
-640.107
-645.014
-649.875
-654.684
-659.448
-664.165
-668.832
-673.455
-678.03
-682.562
-687.048
-691.488
-695.885
-700.24
-704.553
-708.821
-713.05
-717.235
-721.382
-725.489
-729.554
-733.582
-737.57
-741.522
-745.436
-749.311
-753.152
-756.954
-760.723
-764.457
-768.155
-771.82
-775.45
-779.048
-782.614
-786.145
-789.646
-793.114
-796.552
-799.96
-803.336
-806.681
-809.999
-813.288
-816.547
-819.778
-822.98
-826.156
-829.305
-832.425
-835.52
-838.587
-841.63
-844.648
-847.638
-850.605
-853.546
-856.464
-859.358
-862.227
-865.074
-867.897
-870.698
-873.477
-876.232
-878.967
-881.678
-884.369
-887.038
-889.687
-892.314
-894.922
-897.51
-900.076
-902.624
-905.151
-907.66
-910.15
-912.62
-915.073
-917.506
-919.922
-922.32
-924.699
-927.062
-929.406
-931.735
-934.046
-936.339
-938.617
-940.878
-943.123
-945.353
-947.566
-949.763
-951.946
-954.113
-956.264
-958.402
-960.523
-962.631
-964.724
-966.802
-968.867
-970.917
-972.953
-974.977
-976.985
-978.981
-980.963
-982.933
-984.889
-986.832
-988.763
-990.68
-992.586
-994.48
-996.36
-998.23
-1000.09
-1001.93
-1003.76
-1005.59
-1007.4
-1009.2
-1010.99
-1012.76
-1014.53
-1016.28
-1018.03
-1019.76
-1021.49
-1023.2
-1024.9
-1026.6
-1028.28
-1029.95
-1031.61
-1033.27
-1034.91
-1036.54
-1038.17
-1039.78
-1041.39
-1042.99
-1044.57
-1046.15
-1047.72
-1049.28
-1050.83
-1052.38
-1053.91
-1055.44
-1056.95
-1058.46
-1059.97
-1061.46
-1062.95
-1064.42
-1065.89
-1067.91
-1069.37
-1070.81
-1072.24
-1073.67
-1075.08
-1076.49
-1077.89
-1079.28
-1080.66
-1082.04
-1083.4
-1084.76
-1086.11
-1087.46
-1088.79
-1090.12
-1091.44
-1092.75
-1094.06
-1095.36
-1096.65
-1097.93
-1099.21
-1100.48
-1101.74
-1102.99
-1104.24
-1105.48
-1106.71
-1107.94
-1109.16
-1110.38
-1111.58
-1112.78
-1113.98
-1115.16
-1116.35
-1117.52
-1118.69
-1119.85
-1121.01
-1122.16
-1123.3
-1124.44
-1125.57
-1126.69
-1127.81
-1128.93
-1130.03
-1131.14
-1132.23
-1133.32
-1134.41
-1135.49
-1136.56
-1137.63
-1138.69
-1139.75
-1140.8
-1141.85
-1142.89
-1143.92
-1144.95
-1145.98
-1147
-1148.01
-1149.02
-1150.03
-1151.03
-1152.02
-1153.01
-1154
-1154.98
-1155.95
-1156.92
-1157.89
-1158.85
-1159.81
-1160.76
-1161.71
-1162.65
-1163.59
-1164.52
-1165.45
-1166.37
-1167.29
-1168.21
-1169.12
-1170.02
-1170.93
-1171.83
-1172.72
-1173.61
-1174.49
-1175.37
-1176.25
-1177.12
-1177.99
-1178.86
-1179.72
-1180.58
-1181.43
-1182.28
-1183.13
-1183.97
-1184.8
-1185.64
-1186.47
-1187.29
-1188.11
-1188.93
-1189.75
-1190.56
-1191.37
-1192.17
-1192.97
-1193.77
-1194.56
-1195.35
-1196.14
-1196.92
-1197.7
-1198.47
-1199.24
-1200.01
-1200.78
-1201.54
-1202.3
-1203.05
-1203.8
-1204.55
-1205.3
-1206.04
-1206.78
-1207.51
-1208.24
-1208.97
-1209.7
-1210.42
-1211.14
-1211.86
-1212.57
-1213.28
-1213.99
-1214.69
-1215.4
-1216.09
-1216.79
-1217.48
-1218.17
-1218.86
-1219.54
-1220.22
-1220.9
-1221.57
-1222.25
-1222.92
-1223.58
-1224.25
-1224.91
-1225.57
-1226.22
-1226.87
-1227.52
-1228.17
-1228.82
-1229.46
-1230.1
-1230.73
-1231.37
-1232
-1232.63
-1233.26
-1233.88
-1234.5
-1235.12
-1235.74
-1236.35
-1236.96
-1237.57
-1238.18
-1238.78
-1239.38
-1239.98
-1240.58
-1241.18
-1241.77
-1242.36
-1242.95
-1243.53
-1244.11
-1244.69
-1245.27
-1245.85
-1246.42
-1246.99
-1247.56
-1248.13
-1248.7
-1249.26
-1249.82
-1250.38
-1250.93
-1251.49
-1252.04
-1252.59
-1253.14
-1253.68
-1254.23
-1254.77
-1255.31
-1255.84
-1256.38
-1256.91
-1257.44
-1257.97
-1258.5
-1259.03
-1259.55
-1260.07
-1260.59
-1261.11
-1261.62
-1262.14
-1262.65
-1263.16
-1263.67
-1264.18
-1264.68
-1265.18
-1265.68
-1266.18
-1266.68
-1267.18
-1267.67
-1268.16
-1268.65
-1269.14
-1269.63
-1270.11
-1270.59
-1271.07
-1271.55
-1272.03
-1272.51
-1272.98
-1273.45
-1273.92
-1274.39
-1274.86
-1275.33
-1275.79
-1276.25
-1276.71
-1277.17
-1277.63
-1278.09
-1278.54
-1278.99
-1279.45
-1279.9
-1280.34
-1280.79
-1281.24
-1281.68
-1282.12
-1282.56
-1283
-1283.44
-1283.87
-1284.31
-1284.74
-1285.17
-1285.6
-1286.03
-1286.46
-1286.88
-1287.31
-1287.73
-1288.15
-1288.57
-1288.99
-1289.4
-1289.82
-1290.23
-1290.65
-1291.06
-1291.47
-1291.88
-1292.28
-1292.69
-1293.09
-1293.5
-1293.9
-1294.3
-1294.7
-1295.1
-1295.49
-1295.89
-1296.28
-1296.67
-1297.07
-1297.45
-1297.84
-1298.23
-1298.62
-1299
-1299.39
-1299.77
-1300.15
-1300.53
-1300.91
-1301.29
-1301.66
-1302.04
-1302.41
-1302.79
-1303.16
-1303.53
-1303.9
-1304.26
-1304.63
-1305
-1305.36
-1305.73
-1306.09
-1306.45
-1306.81
-1307.17
-1307.53
-1307.88
-1308.24
-1308.59
-1308.95
-1309.3
-1309.65
-1310
-1310.35
-1310.7
-1311.04
-1311.39
-1311.74
-1312.08
-1312.42
-1312.76
-1313.1
-1313.44
-1313.78
-1314.12
-1314.46
-1314.8
-1315.13
-1315.47
-1315.8
-1316.13
-1316.46
-1316.79
-1317.12
-1317.45
-1317.78
-1318.1
-1318.43
-1318.75
-1319.08
-1319.4
-1319.72
-1320.04
-1320.36
-1320.68
-1321
-1321.32
-1321.63
-1321.95
-1322.26
-1322.58
-1322.89
-1323.2
-1323.51
-1323.82
-1324.13
-1324.44
-1324.75
-1325.05
-1325.36
-1325.66
-1325.97
-1326.27
-1326.57
-1326.88
-1327.18
-1327.48
-1327.78
-1328.07
-1328.37
-1328.67
-1328.97
-1329.26
-1329.56
-1329.85
-1330.14
-1330.43
-1330.73
-1331.02
-1331.31
-1331.6
-1331.88
-1332.17
-1332.46
-1332.75
-1333.03
-1333.32
-1333.6
-1333.88
-1334.17
-1334.45
-1334.73
-1335.01
-1335.29
-1335.57
-1335.85
-1336.13
-1336.41
-1336.68
-1336.96
-1337.23
-1337.51
-1337.78
-1338.06
-1338.33
-1338.6
-1338.87
-1339.17
-1339.52
-1339.93
-1340.41
-1340.98
-1341.65
-1342.44
-1343.36
-1344.43
-1345.69
-1347.15
-1348.85
-1350.81
-1353.07
-1355.66
-1358.62
-1361.98
-1365.76
-1370
-1374.69
-1379.86
-1385.47
-1391.5
-1397.9
-1404.59
-1411.5
-1418.52
-1425.56
-1432.54
-1439.38
-1446.05
-1452.53
-1458.8
-1464.84
-1470.59
-1475.92
-1480.61
-1484.34
-1486.6
-1992.14
-2072.91
-2286.31
-2672.59
-3235.68
-3909.8
-4557.37
-5059.56
-5387.83
-5577.55
-5688.99
-5781.54
-5881.07
-5988.74
-6106.11
-6235.34
-6379.58
-6543.71
-6735.74
-6969.2
-7261.9
-1992.13
-2073.06
-2286.95
-2674.56
-3240.38
-3918.15
-4568.55
-5071.84
-5399.94
-5589.04
-5699.88
-5791.76
-5890.33
-5996.62
-6111.98
-6238.12
-6377.39
-6532.83
-6708.13
-6906.29
-7123.21
-1992.12
-2073.2
-2287.59
-2676.49
-3244.93
-3926.02
-4578.52
-5081.79
-5408.45
-5595.86
-5705.31
-5795.76
-5892.42
-5996.11
-6107.82
-6228.73
-6360.19
-6503.5
-6659.31
-6825.98
-6995.96
-1992.11
-2073.35
-2288.22
-2678.4
-3249.35
-3933.41
-4587.29
-5089.46
-5413.48
-5598.23
-5705.62
-5794.01
-5887.98
-5988.13
-6095.11
-6209.56
-6332
-6462.57
-6600.4
-6742.6
-6882.81
-1992.1
-2073.49
-2288.84
-2680.27
-3253.62
-3940.32
-4594.87
-5094.9
-5415.19
-5596.46
-5701.23
-5787.07
-5877.81
-5973.83
-6075.47
-6182.95
-6296.27
-6414.9
-6537.44
-6661.07
-6781.15
-1992.09
-2073.63
-2289.46
-2682.11
-3257.75
-3946.75
-4601.28
-5098.18
-5413.77
-5590.9
-5692.63
-5775.57
-5862.73
-5954.31
-6050.39
-6150.94
-6255.6
-6363.6
-6473.47
-6582.83
-6688.41
-1992.08
-2073.77
-2290.07
-2683.92
-3261.74
-3952.7
-4606.54
-5099.38
-5409.46
-5581.91
-5680.33
-5760.16
-5843.56
-5930.59
-6021.18
-6115.09
-6211.84
-6310.58
-6409.96
-6508.1
-6602.66
-1992.07
-2073.92
-2290.68
-2685.7
-3265.59
-3958.17
-4610.66
-5098.62
-5402.49
-5569.88
-5664.8
-5741.42
-5821.03
-5903.57
-5988.87
-6076.61
-6166.25
-6256.96
-6347.6
-6436.69
-6522.52
-1992.06
-2074.06
-2291.28
-2687.45
-3269.29
-3963.17
-4613.68
-5095.99
-5393.09
-5555.19
-5646.53
-5719.92
-5795.78
-5873.98
-5954.3
-6036.37
-6119.66
-6203.42
-6286.68
-6368.29
-6446.99
-1992.05
-2074.19
-2291.88
-2689.16
-3272.85
-3967.7
-4615.63
-5091.6
-5381.5
-5538.17
-5625.92
-5696.13
-5768.35
-5842.42
-5918.1
-5995
-6072.63
-6150.33
-6227.29
-6302.61
-6375.31
-1992.04
-2074.33
-2292.47
-2690.85
-3276.26
-3971.77
-4616.54
-5085.57
-5367.96
-5519.15
-5603.36
-5670.46
-5739.19
-5809.38
-5880.76
-5952.97
-6025.54
-6097.92
-6169.44
-6239.36
-6306.93
-1992.03
-2074.47
-2293.05
-2692.5
-3279.53
-3975.37
-4616.44
-5078.02
-5352.67
-5498.42
-5579.16
-5643.27
-5708.69
-5775.24
-5842.65
-5910.58
-5978.63
-6046.31
-6113.06
-6178.29
-6241.39
-1992.02
-2074.61
-2293.63
-2694.12
-3282.66
-3978.52
-4615.37
-5069.04
-5335.85
-5476.22
-5553.61
-5614.86
-5677.15
-5740.3
-5804.05
-5868.09
-5932.07
-5995.56
-6058.1
-6119.19
-6178.36
-1992.01
-2074.74
-2294.21
-2695.71
-3285.65
-3981.22
-4613.37
-5058.76
-5317.68
-5452.79
-5526.96
-5585.47
-5644.82
-5704.79
-5765.17
-5825.66
-5885.96
-5945.7
-6004.48
-6061.89
-6117.54
-1992
-2074.88
-2294.77
-2697.27
-3288.49
-3983.49
-4610.47
-5047.28
-5298.33
-5428.33
-5499.4
-5555.33
-5611.89
-5668.91
-5726.18
-5783.42
-5840.38
-5896.72
-5952.12
-6006.23
-6058.72
-1991.99
-2075.01
-2295.34
-2698.79
-3291.19
-3985.32
-4606.72
-5034.7
-5277.94
-5403.01
-5471.12
-5524.59
-5578.55
-5632.82
-5687.2
-5741.46
-5795.36
-5848.62
-5900.96
-5952.08
-6001.7
-1991.98
-2075.15
-2295.89
-2700.28
-3293.75
-3986.72
-4602.16
-5021.12
-5256.67
-5376.96
-5442.26
-5493.41
-5544.91
-5596.61
-5648.32
-5699.83
-5750.93
-5801.38
-5850.93
-5899.32
-5946.32
-1991.97
-2075.28
-2296.45
-2701.74
-3296.17
-3987.7
-4596.81
-5006.64
-5234.63
-5350.34
-5412.95
-5461.9
-5511.1
-5560.4
-5609.62
-5658.59
-5707.11
-5754.98
-5801.96
-5847.86
-5892.45
-1991.96
-2075.41
-2296.99
-2703.17
-3298.45
-3988.28
-4590.73
-4991.33
-5211.93
-5323.23
-5383.29
-5430.16
-5477.19
-5524.24
-5571.16
-5617.77
-5663.9
-5709.38
-5754.01
-5797.6
-5839.97
-1991.95
-2075.55
-2297.53
-2704.57
-3300.59
-3988.45
-4583.95
-4975.27
-5188.66
-5295.75
-5353.38
-5398.29
-5443.27
-5488.21
-5532.97
-5577.38
-5621.31
-5664.58
-5707.02
-5748.48
-5788.78
-1991.94
-2075.68
-2298.07
-2705.93
-3302.59
-3988.23
-4576.5
-4958.55
-5164.93
-5267.97
-5323.29
-5366.34
-5409.4
-5452.36
-5495.09
-5537.46
-5579.33
-5620.54
-5660.96
-5700.43
-5738.81
-1991.92
-2075.81
-2298.6
-2707.26
-3304.45
-3987.63
-4568.43
-4941.23
-5140.8
-5239.97
-5293.09
-5334.37
-5375.62
-5416.71
-5457.55
-5498.01
-5537.95
-5577.25
-5615.77
-5653.39
-5689.97
-1991.91
-2075.94
-2299.12
-2708.56
-3306.18
-3986.66
-4559.77
-4923.38
-5116.34
-5211.8
-5262.83
-5302.44
-5341.97
-5381.31
-5420.37
-5459.02
-5497.16
-5534.67
-5571.43
-5607.31
-5642.21
-1991.9
-2076.06
-2299.64
-2709.82
-3307.76
-3985.32
-4550.56
-4905.05
-5091.61
-5183.53
-5232.57
-5270.59
-5308.49
-5346.18
-5383.56
-5420.52
-5456.97
-5492.8
-5527.89
-5562.15
-5595.46
-1991.89
-2076.19
-2300.15
-2711.06
-3309.22
-3983.63
-4540.83
-4886.3
-5066.68
-5155.19
-5202.34
-5238.85
-5275.21
-5311.33
-5347.13
-5382.5
-5417.35
-5451.6
-5485.13
-5517.86
-5549.68
-1991.88
-2076.32
-2300.66
-2712.26
-3310.54
-3981.59
-4530.61
-4867.17
-5041.57
-5126.84
-5172.18
-5207.25
-5242.15
-5276.79
-5311.09
-5344.95
-5378.31
-5411.06
-5443.12
-5474.4
-5504.81
-1991.87
-2076.44
-2301.16
-2713.43
-3311.72
-3979.22
-4519.93
-4847.73
-5016.34
-5098.5
-5142.11
-5175.82
-5209.33
-5242.56
-5275.44
-5307.89
-5339.82
-5371.16
-5401.83
-5431.75
-5460.83
-1991.86
-2076.57
-2301.65
-2714.56
-3312.78
-3976.52
-4508.83
-4828
-4991.03
-5070.2
-5112.17
-5144.58
-5176.76
-5208.66
-5240.2
-5271.3
-5301.89
-5331.9
-5361.25
-5389.87
-5417.69
-1991.84
-2076.69
-2302.14
-2715.67
-3313.71
-3973.51
-4497.33
-4808.03
-4965.67
-5041.98
-5082.37
-5113.54
-5144.47
-5175.1
-5205.36
-5235.18
-5264.49
-5293.24
-5321.34
-5348.74
-5375.35
-1991.83
-2076.82
-2302.62
-2716.74
-3314.5
-3970.19
-4485.46
-4787.85
-4940.28
-5013.85
-5052.74
-5082.73
-5112.46
-5141.87
-5170.92
-5199.53
-5227.63
-5255.18
-5282.1
-5308.32
-5333.8
-1991.82
-2076.94
-2303.1
-2717.78
-3315.17
-3966.58
-4473.25
-4767.49
-4914.9
-4985.84
-5023.3
-5052.15
-5080.73
-5109
-5136.89
-5164.34
-5191.3
-5217.7
-5243.49
-5268.61
-5293
-1991.81
-2077.06
-2303.57
-2718.79
-3315.72
-3962.68
-4460.73
-4746.99
-4889.55
-4957.97
-4994.04
-5021.81
-5049.31
-5076.47
-5103.26
-5129.61
-5155.47
-5180.79
-5205.51
-5229.57
-5252.93
-1991.8
-2077.18
-2304.04
-2719.76
-3316.13
-3958.51
-4447.91
-4726.37
-4864.25
-4930.24
-4965
-4991.73
-5018.18
-5044.3
-5070.04
-5095.34
-5120.16
-5144.44
-5168.13
-5191.19
-5213.56
-1991.78
-2077.3
-2304.5
-2720.71
-3316.43
-3954.07
-4434.82
-4705.66
-4839.02
-4902.68
-4936.17
-4961.92
-4987.37
-5012.48
-5037.21
-5061.51
-5085.33
-5108.63
-5131.35
-5153.44
-5174.87
-1991.77
-2077.42
-2304.95
-2721.62
-3316.6
-3949.37
-4421.49
-4684.88
-4813.87
-4875.3
-4907.58
-4932.37
-4956.86
-4981.02
-5004.79
-5028.13
-5051
-5073.35
-5095.14
-5116.32
-5136.85
-1991.76
-2077.54
-2305.4
-2722.5
-3316.66
-3944.42
-4407.93
-4664.05
-4788.82
-4848.1
-4879.22
-4903.1
-4926.68
-4949.91
-4972.77
-4995.19
-5017.15
-5038.6
-5059.5
-5079.8
-5099.47
-1991.75
-2077.66
-2305.84
-2723.34
-3316.6
-3939.23
-4394.17
-4643.19
-4763.89
-4821.1
-4851.1
-4874.1
-4896.81
-4919.16
-4941.14
-4962.69
-4983.78
-5004.37
-5024.41
-5043.87
-5062.72
-1991.73
-2077.77
-2306.28
-2724.16
-3316.41
-3933.82
-4380.21
-4622.31
-4739.09
-4794.31
-4823.23
-4845.4
-4867.26
-4888.77
-4909.9
-4930.62
-4950.87
-4970.63
-4989.86
-5008.52
-5026.58
-1991.72
-2077.89
-2306.71
-2724.95
-3316.12
-3928.18
-4366.09
-4601.45
-4714.42
-4767.73
-4795.61
-4816.98
-4838.03
-4858.73
-4879.06
-4898.97
-4918.42
-4937.39
-4955.84
-4973.73
-4991.03
-1991.71
-2078.01
-2307.14
-2725.7
-3315.71
-3922.33
-4351.82
-4580.6
-4689.9
-4741.36
-4768.25
-4788.84
-4809.12
-4829.05
-4848.6
-4867.73
-4886.43
-4904.64
-4922.34
-4939.49
-4956.07
-1991.69
-2078.12
-2307.56
-2726.42
-3315.19
-3916.28
-4337.41
-4559.78
-4665.54
-4715.22
-4741.16
-4761
-4780.53
-4799.71
-4818.52
-4836.92
-4854.87
-4872.36
-4889.34
-4905.79
-4921.67
-1991.68
-2078.23
-2307.97
-2727.11
-3314.56
-3910.04
-4322.88
-4539
-4641.33
-4689.3
-4714.32
-4733.45
-4752.26
-4770.73
-4788.82
-4806.51
-4823.76
-4840.55
-4856.84
-4872.61
-4887.82
-1991.67
-2078.35
-2308.38
-2727.77
-3313.82
-3903.6
-4308.24
-4518.29
-4617.3
-4663.62
-4687.75
-4706.19
-4724.31
-4742.09
-4759.5
-4776.5
-4793.08
-4809.2
-4824.83
-4839.94
-4854.52
-1991.66
-2078.46
-2308.78
-2728.4
-3312.98
-3896.99
-4293.51
-4497.64
-4593.45
-4638.17
-4661.45
-4679.22
-4696.68
-4713.8
-4730.55
-4746.9
-4762.82
-4778.3
-4793.29
-4807.78
-4821.74
-1991.64
-2078.57
-2309.18
-2728.99
-3312.03
-3890.21
-4278.7
-4477.06
-4569.77
-4612.96
-4635.42
-4652.55
-4669.37
-4685.85
-4701.96
-4717.68
-4732.98
-4747.84
-4762.23
-4776.12
-4789.49
-1991.63
-2078.68
-2309.57
-2729.56
-3310.97
-3883.27
-4263.81
-4456.57
-4546.28
-4587.99
-4609.65
-4626.17
-4642.38
-4658.24
-4673.75
-4688.86
-4703.56
-4717.82
-4731.62
-4744.94
-4757.74
-1991.62
-2078.79
-2309.95
-2730.1
-3309.82
-3876.17
-4248.88
-4436.17
-4522.99
-4563.26
-4584.16
-4600.09
-4615.7
-4630.97
-4645.89
-4660.42
-4674.54
-4688.23
-4701.47
-4714.23
-4726.49
-1991.6
-2078.9
-2310.33
-2730.6
-3308.56
-3868.92
-4233.89
-4415.87
-4499.88
-4538.78
-4558.94
-4574.29
-4589.33
-4604.04
-4618.39
-4632.36
-4645.92
-4659.07
-4671.76
-4683.99
-4695.72
-1991.59
-2079.01
-2310.71
-2731.08
-3307.21
-3861.54
-4218.87
-4395.68
-4476.97
-4514.53
-4533.98
-4548.78
-4563.28
-4577.43
-4591.24
-4604.67
-4617.7
-4630.31
-4642.49
-4654.2
-4665.43
-1991.57
-2079.11
-2311.07
-2731.52
-3305.77
-3854.02
-4203.82
-4375.6
-4454.26
-4490.53
-4509.3
-4523.57
-4537.53
-4551.16
-4564.44
-4577.35
-4589.86
-4601.97
-4613.64
-4624.86
-4635.61
-1991.56
-2079.22
-2311.43
-2731.94
-3304.23
-3846.37
-4188.75
-4355.63
-4431.75
-4466.78
-4484.88
-4498.64
-4512.09
-4525.21
-4537.98
-4550.39
-4562.41
-4574.03
-4585.22
-4595.96
-4606.24
-1991.55
-2079.32
-2311.79
-2732.32
-3302.59
-3838.6
-4173.68
-4335.79
-4409.45
-4443.27
-4460.73
-4473.99
-4486.95
-4499.58
-4511.87
-4523.79
-4535.34
-4546.48
-4557.21
-4567.49
-4577.33
-1991.53
-2079.43
-2312.14
-2732.68
-3300.87
-3830.72
-4158.6
-4316.08
-4387.35
-4420.01
-4436.85
-4449.64
-4462.12
-4474.27
-4486.09
-4497.55
-4508.63
-4519.32
-4529.6
-4539.45
-4548.85
-1991.52
-2079.53
-2312.48
-2733
-3299.06
-3822.73
-4143.53
-4296.5
-4365.45
-4396.99
-4413.24
-4425.56
-4437.58
-4449.28
-4460.64
-4471.66
-4482.3
-4492.55
-4502.39
-4511.82
-4520.8
-1991.5
-2079.63
-2312.82
-2733.3
-3297.16
-3814.65
-4128.47
-4277.05
-4343.77
-4374.22
-4389.89
-4401.76
-4413.34
-4424.6
-4435.53
-4446.11
-4456.32
-4466.15
-4475.58
-4484.6
-4493.18
-1991.49
-2079.74
-2313.15
-2733.56
-3295.17
-3806.46
-4113.43
-4257.74
-4322.29
-4351.69
-4366.8
-4378.24
-4389.39
-4400.23
-4410.73
-4420.89
-4430.69
-4440.12
-4449.15
-4457.77
-4465.98
-1991.48
-2079.84
-2313.48
-2733.8
-3293.1
-3798.19
-4098.41
-4238.56
-4301.01
-4329.4
-4343.97
-4355
-4365.73
-4376.16
-4386.26
-4396.02
-4405.42
-4414.45
-4423.1
-4431.34
-4439.17
-1991.46
-2079.94
-2313.8
-2734.01
-3290.95
-3789.83
-4083.42
-4219.54
-4279.95
-4307.35
-4321.4
-4332.03
-4342.36
-4352.39
-4362.1
-4371.47
-4380.49
-4389.15
-4397.42
-4405.3
-4412.78
-1991.45
-2080.04
-2314.12
-2734.19
-3288.72
-3781.4
-4068.47
-4200.66
-4259.1
-4285.54
-4299.09
-4309.33
-4319.28
-4328.93
-4338.25
-4347.25
-4355.9
-4364.19
-4372.11
-4379.64
-4386.77
-1991.43
-2080.14
-2314.43
-2734.34
-3286.42
-3772.89
-4053.57
-4181.92
-4238.45
-4263.98
-4277.04
-4286.9
-4296.48
-4305.75
-4314.72
-4323.35
-4331.65
-4339.59
-4347.16
-4354.35
-4361.15
-1991.42
-2080.23
-2314.73
-2734.47
-3284.03
-3764.31
-4038.7
-4163.34
-4218.01
-4242.65
-4255.24
-4264.74
-4273.95
-4282.87
-4291.48
-4299.77
-4307.72
-4315.32
-4322.56
-4329.43
-4335.9
-1991.4
-2080.33
-2315.03
-2734.56
-3281.58
-3755.67
-4023.89
-4144.9
-4197.78
-4221.55
-4233.69
-4242.84
-4251.71
-4260.28
-4268.55
-4276.5
-4284.12
-4291.39
-4298.31
-4304.86
-4311.03
-1991.39
-2080.43
-2315.32
-2734.63
-3279.04
-3746.97
-4009.13
-4126.62
-4177.76
-4200.69
-4212.39
-4221.2
-4229.73
-4237.97
-4245.91
-4253.53
-4260.83
-4267.79
-4274.4
-4280.65
-4286.52
-1991.37
-2080.52
-2315.6
-2734.67
-3276.44
-3738.22
-3994.43
-4108.49
-4157.94
-4180.07
-4191.34
-4199.82
-4208.02
-4215.94
-4223.56
-4230.87
-4237.86
-4244.52
-4250.83
-4256.78
-4262.37
-1991.36
-2080.62
-2315.88
-2734.68
-3273.77
-3729.42
-3979.8
-4090.52
-4138.33
-4159.67
-4170.53
-4178.69
-4186.58
-4194.19
-4201.5
-4208.51
-4215.2
-4221.56
-4227.58
-4233.26
-4238.57
-1991.34
-2080.71
-2316.16
-2734.67
-3271.03
-3720.57
-3965.22
-4072.7
-4118.92
-4139.51
-4149.96
-4157.82
-4165.41
-4172.71
-4179.73
-4186.44
-4192.84
-4198.92
-4204.67
-4210.07
-4215.12
-1991.33
-2080.8
-2316.43
-2734.63
-3268.23
-3711.69
-3950.72
-4055.04
-4099.71
-4119.57
-4129.64
-4137.2
-4144.49
-4151.5
-4158.23
-4164.66
-4170.79
-4176.59
-4182.07
-4187.21
-4192
-1991.31
-2080.89
-2316.69
-2734.56
-3265.36
-3702.76
-3936.29
-4037.53
-4080.71
-4099.85
-4109.55
-4116.82
-4123.83
-4130.56
-4137.01
-4143.17
-4149.03
-4154.57
-4159.79
-4164.67
-4169.22
-1991.3
-2080.98
-2316.95
-2734.46
-3262.42
-3693.8
-3921.93
-4020.18
-4061.91
-4080.36
-4089.7
-4096.69
-4103.42
-4109.89
-4116.07
-4121.96
-4127.56
-4132.84
-4137.81
-4142.46
-4146.76
-1991.28
-2081.07
-2317.2
-2734.34
-3259.43
-3684.82
-3907.64
-4002.98
-4043.31
-4061.09
-4070.08
-4076.8
-4083.27
-4089.47
-4095.39
-4101.03
-4106.37
-4111.41
-4116.14
-4120.55
-4124.63
-1991.27
-2081.16
-2317.44
-2734.19
-3256.37
-3675.8
-3893.44
-3985.94
-4024.9
-4042.04
-4050.69
-4057.15
-4063.36
-4069.3
-4074.98
-4080.37
-4085.47
-4090.27
-4094.77
-4098.95
-4102.8
-1991.25
-2081.25
-2317.68
-2734.02
-3253.26
-3666.77
-3879.31
-3969.06
-4006.7
-4023.21
-4031.52
-4037.73
-4043.69
-4049.39
-4054.82
-4059.98
-4064.84
-4069.42
-4073.69
-4077.65
-4081.29
-1991.23
-2081.34
-2317.92
-2733.82
-3250.09
-3657.71
-3865.27
-3952.33
-3988.68
-4004.59
-4012.58
-4018.55
-4024.27
-4029.73
-4034.93
-4039.85
-4044.49
-4048.84
-4052.9
-4056.65
-4060.08
-1991.22
-2081.43
-2318.15
-2733.59
-3246.87
-3648.64
-3851.31
-3935.76
-3970.87
-3986.18
-3993.87
-3999.6
-4005.08
-4010.31
-4015.29
-4019.99
-4024.41
-4028.55
-4032.39
-4035.94
-4039.18
-1991.2
-2081.51
-2318.37
-2733.34
-3243.59
-3639.56
-3837.44
-3919.35
-3953.24
-3967.99
-3975.38
-3980.88
-3986.13
-3991.14
-3995.89
-4000.38
-4004.59
-4008.52
-4012.17
-4015.52
-4018.56
-1991.19
-2081.6
-2318.59
-2733.07
-3240.26
-3630.46
-3823.65
-3903.09
-3935.81
-3950
-3957.1
-3962.38
-3967.42
-3972.21
-3976.75
-3981.03
-3985.03
-3988.77
-3992.21
-3995.37
-3998.23
-1991.17
-2081.68
-2318.8
-2732.77
-3236.89
-3621.36
-3809.96
-3886.98
-3918.56
-3932.21
-3939.03
-3944.1
-3948.93
-3953.51
-3957.84
-3961.92
-3965.73
-3969.27
-3972.53
-3975.51
-3978.19
-1991.15
-2081.76
-2319.01
-2732.44
-3233.46
-3612.26
-3796.35
-3871.03
-3901.5
-3914.63
-3921.18
-3926.04
-3930.66
-3935.04
-3939.18
-3943.06
-3946.68
-3950.04
-3953.11
-3955.91
-3958.42
-1991.14
-2081.85
-2319.21
-2732.09
-3229.98
-3603.15
-3782.83
-3855.23
-3884.63
-3897.26
-3903.54
-3908.2
-3912.62
-3916.81
-3920.75
-3924.44
-3927.88
-3931.05
-3933.96
-3936.58
-3938.93
-1991.12
-2081.93
-2319.4
-2731.72
-3226.46
-3594.04
-3769.41
-3839.58
-3867.94
-3880.08
-3886.11
-3890.57
-3894.8
-3898.8
-3902.56
-3906.07
-3909.33
-3912.33
-3915.06
-3917.52
-3919.7
-1991.1
-2082.01
-2319.59
-2731.32
-3222.89
-3584.94
-3756.08
-3824.09
-3851.43
-3863.1
-3868.88
-3873.15
-3877.19
-3881.01
-3884.59
-3887.92
-3891.01
-3893.84
-3896.41
-3898.71
-3900.74
-1991.09
-2082.09
-2319.77
-2730.9
-3219.28
-3575.84
-3742.84
-3808.74
-3835.1
-3846.31
-3851.85
-3855.94
-3859.8
-3863.44
-3866.85
-3870.01
-3872.93
-3875.6
-3878.01
-3880.16
-3882.04
-1991.07
-2082.17
-2319.95
-2730.45
-3215.63
-3566.75
-3729.69
-3793.55
-3818.95
-3829.71
-3835.02
-3838.93
-3842.62
-3846.09
-3849.33
-3852.33
-3855.09
-3857.6
-3859.86
-3861.86
-3863.6
-1991.05
-2082.25
-2320.12
-2729.99
-3211.94
-3557.67
-3716.64
-3778.5
-3802.98
-3813.31
-3818.39
-3822.13
-3825.65
-3828.95
-3832.03
-3834.87
-3837.47
-3839.83
-3841.95
-3843.8
-3845.4
-1991.04
-2082.32
-2320.29
-2729.5
-3208.21
-3548.61
-3703.69
-3763.61
-3787.18
-3797.09
-3801.96
-3805.53
-3808.89
-3812.03
-3814.94
-3817.63
-3820.08
-3822.3
-3824.27
-3825.99
-3827.45
-1991.02
-2082.4
-2320.45
-2728.98
-3204.44
-3539.55
-3690.83
-3748.85
-3771.55
-3781.06
-3785.71
-3789.12
-3792.32
-3795.31
-3798.07
-3800.61
-3802.92
-3804.99
-3806.82
-3808.41
-3809.74
-1991
-2082.48
-2320.61
-2728.45
-3200.63
-3530.51
-3678.06
-3734.25
-3756.1
-3765.21
-3769.66
-3772.91
-3775.96
-3778.79
-3781.41
-3783.8
-3785.97
-3787.9
-3789.6
-3791.06
-3792.27
-1990.99
-2082.55
-2320.76
-2727.89
-3196.79
-3521.49
-3665.4
-3719.79
-3740.81
-3749.54
-3753.79
-3756.89
-3759.79
-3762.48
-3764.95
-3767.21
-3769.24
-3771.04
-3772.61
-3773.94
-3775.03
-1990.97
-2082.62
-2320.9
-2727.31
-3192.92
-3512.49
-3652.83
-3705.47
-3725.69
-3734.05
-3738.11
-3741.06
-3743.81
-3746.36
-3748.7
-3750.82
-3752.72
-3754.39
-3755.84
-3757.05
-3758.02
-1990.95
-2082.7
-2321.04
-2726.7
-3189.01
-3503.51
-3640.35
-3691.3
-3710.74
-3718.73
-3722.61
-3725.42
-3728.03
-3730.44
-3732.64
-3734.63
-3736.41
-3737.96
-3739.28
-3740.38
-3741.24
-1990.93
-2082.77
-2321.17
-2726.08
-3185.07
-3494.55
-3627.97
-3677.26
-3695.95
-3703.59
-3707.29
-3709.96
-3712.44
-3714.72
-3716.79
-3718.65
-3720.3
-3721.73
-3722.94
-3723.93
-3724.68
-1990.92
-2082.84
-2321.3
-2725.44
-3181.1
-3485.62
-3615.69
-3663.37
-3681.32
-3688.63
-3692.14
-3694.68
-3697.03
-3699.18
-3701.13
-3702.87
-3704.4
-3705.71
-3706.81
-3707.69
-3708.34
-1990.9
-2082.91
-2321.42
-2724.77
-3177.1
-3476.71
-3603.51
-3649.61
-3666.85
-3673.83
-3677.17
-3679.58
-3681.8
-3683.83
-3685.66
-3687.28
-3688.69
-3689.9
-3690.89
-3691.66
-3692.21
-1990.88
-2082.98
-2321.54
-2724.08
-3173.07
-3467.83
-3591.42
-3635.99
-3652.54
-3659.2
-3662.38
-3664.66
-3666.76
-3668.66
-3670.37
-3671.88
-3673.19
-3674.28
-3675.17
-3675.84
-3676.29
-1990.86
-2083.05
-2321.65
-2723.37
-3169.02
-3458.97
-3579.43
-3622.51
-3638.38
-3644.73
-3647.75
-3649.92
-3651.89
-3653.68
-3655.28
-3656.67
-3657.87
-3658.86
-3659.65
-3660.22
-3660.58
-1990.84
-2083.12
-2321.76
-2722.65
-3164.93
-3450.15
-3567.53
-3609.17
-3624.38
-3630.43
-3633.3
-3635.34
-3637.2
-3638.88
-3640.36
-3641.65
-3642.75
-3643.64
-3644.32
-3644.8
-3645.07
-1990.83
-2083.19
-2321.86
-2721.9
-3160.83
-3441.35
-3555.73
-3595.96
-3610.54
-3616.29
-3619.01
-3620.94
-3622.69
-3624.25
-3625.63
-3626.82
-3627.81
-3628.6
-3629.2
-3629.58
-3629.76
-1990.81
-2083.25
-2321.96
-2721.13
-3156.7
-3432.59
-3544.03
-3582.88
-3596.84
-3602.31
-3604.88
-3606.7
-3608.34
-3609.8
-3611.07
-3612.16
-3613.06
-3613.76
-3614.26
-3614.56
-3614.65
-1990.79
-2083.32
-2322.05
-2720.34
-3152.55
-3423.86
-3532.42
-3569.93
-3583.29
-3588.49
-3590.91
-3592.63
-3594.16
-3595.52
-3596.69
-3597.68
-3598.48
-3599.09
-3599.51
-3599.72
-3599.73
-1990.77
-2083.38
-2322.13
-2719.53
-3148.37
-3415.16
-3520.91
-3557.11
-3569.89
-3574.82
-3577.11
-3578.71
-3580.15
-3581.41
-3582.49
-3583.38
-3584.09
-3584.61
-3584.94
-3585.07
-3585
-1990.75
-2083.44
-2322.21
-2718.71
-3144.18
-3406.49
-3509.49
-3544.42
-3556.63
-3561.3
-3563.46
-3564.96
-3566.3
-3567.46
-3568.45
-3569.25
-3569.87
-3570.31
-3570.55
-3570.61
-3570.46
-1990.74
-2083.51
-2322.29
-2717.86
-3139.96
-3397.87
-3498.17
-3531.86
-3543.52
-3547.94
-3549.97
-3551.37
-3552.61
-3553.68
-3554.57
-3555.29
-3555.83
-3556.18
-3556.35
-3556.32
-3556.11
-1990.72
-2083.57
-2322.35
-2717
-3135.73
-3389.27
-3486.94
-3519.43
-3530.55
-3534.72
-3536.63
-3537.94
-3539.08
-3540.06
-3540.87
-3541.5
-3541.95
-3542.23
-3542.32
-3542.22
-3541.93
-1990.7
-2083.63
-2322.42
-2716.11
-3131.48
-3380.72
-3475.81
-3507.11
-3517.72
-3521.66
-3523.44
-3524.66
-3525.71
-3526.6
-3527.32
-3527.87
-3528.25
-3528.44
-3528.46
-3528.29
-3527.94
-1990.68
-2083.69
-2322.48
-2715.21
-3127.21
-3372.2
-3464.77
-3494.93
-3505.02
-3508.73
-3510.39
-3511.53
-3512.5
-3513.3
-3513.94
-3514.41
-3514.71
-3514.83
-3514.77
-3514.53
-3514.11
-1990.66
-2083.75
-2322.53
-2714.3
-3122.93
-3363.72
-3453.82
-3482.86
-3492.47
-3495.95
-3497.5
-3498.54
-3499.43
-3500.15
-3500.71
-3501.1
-3501.33
-3501.38
-3501.25
-3500.95
-3500.46
-1990.64
-2083.81
-2322.58
-2713.36
-3118.63
-3355.28
-3442.96
-3470.92
-3480.05
-3483.32
-3484.75
-3485.71
-3486.51
-3487.16
-3487.64
-3487.96
-3488.11
-3488.09
-3487.9
-3487.53
-3486.98
-1990.62
-2083.87
-2322.62
-2712.4
-3114.32
-3346.88
-3432.2
-3459.1
-3467.76
-3470.82
-3472.15
-3473.02
-3473.75
-3474.31
-3474.72
-3474.97
-3475.05
-3474.96
-3474.7
-3474.27
-3473.67
-1990.6
-2083.92
-2322.66
-2711.43
-3109.99
-3338.52
-3421.52
-3447.39
-3455.6
-3458.46
-3459.68
-3460.48
-3461.13
-3461.62
-3461.95
-3462.13
-3462.14
-3461.99
-3461.67
-3461.18
-3460.52
-1990.58
-2083.98
-2322.69
-2710.44
-3105.65
-3330.2
-3410.94
-3435.8
-3443.57
-3446.23
-3447.35
-3448.08
-3448.65
-3449.07
-3449.33
-3449.44
-3449.39
-3449.17
-3448.79
-3448.25
-3447.53
-1990.56
-2084.03
-2322.72
-2709.44
-3101.3
-3321.92
-3400.45
-3424.33
-3431.67
-3434.14
-3435.16
-3435.81
-3436.31
-3436.66
-3436.86
-3436.9
-3436.78
-3436.51
-3436.07
-3435.47
-3434.7
-1990.54
-2084.09
-2322.74
-2708.42
-3096.94
-3313.68
-3390.04
-3412.98
-3419.9
-3422.18
-3423.11
-3423.69
-3424.12
-3424.4
-3424.53
-3424.51
-3424.33
-3423.99
-3423.5
-3422.85
-3422.03
-1990.53
-2084.14
-2322.76
-2707.38
-3092.56
-3305.49
-3379.73
-3401.73
-3408.26
-3410.35
-3411.19
-3411.7
-3412.06
-3412.27
-3412.34
-3412.26
-3412.02
-3411.63
-3411.08
-3410.37
-3409.51
-1990.51
-2084.19
-2322.77
-2706.32
-3088.18
-3297.34
-3369.5