/*--------------------------------*- C++ -*----------------------------------*\
  =========                 |
  \\      /  F ield         | OpenFOAM: The Open Source CFD Toolbox
   \\    /   O peration     | Website:  https://openfoam.org
    \\  /    A nd           | Version:  7
     \\/     M anipulation  |
\*---------------------------------------------------------------------------*/
FoamFile
{
    version     2.0;
    format      ascii;
    class       volScalarField;
    location    "0";
    object      voltAextMag;
}
// * * * * * * * * * * * * * * * * * * * * * * * * * * * * * * * * * * * * * //

dimensions      [1 2 -3 0 0 -1 0];

internalField   nonuniform List<scalar> 
348515
(
-2518.2
-2621.19
-2892.77
-3384.39
-4101.34
-4960.68
-5787.89
-6430.72
-6851.57
-7095.05
-7238.16
-7357.06
-7485
-7623.5
-7774.6
-7941.16
-8127.42
-8340.24
-8592.43
-8914.89
-9413.43
-9607.67
-8438.61
-7779.25
-7274.53
-6853.32
-6486.81
-6159.93
-5863.69
-5592.17
-5341.24
-5107.88
-4889.79
-4685.21
-4492.69
-4311.02
-4139.24
-3976.55
-3822.17
-3675.55
-3536.1
-3403.35
-3276.88
-3156.3
-3041.26
-2931.42
-2826.5
-2726.24
-2630.37
-2538.68
-2450.94
-2366.96
-2286.54
-2209.51
-2135.7
-2064.97
-1997.16
-1932.13
-1869.77
-1809.93
-1752.51
-1697.39
-1644.48
-1593.67
-1544.86
-1497.98
-1452.92
-1409.62
-1368
-1327.98
-1289.49
-1252.48
-1216.86
-1182.59
-1149.61
-1117.86
-1087.29
-1057.86
-1029.5
-1002.19
-975.872
-950.509
-926.064
-902.496
-879.77
-857.853
-836.714
-816.317
-796.634
-777.64
-759.303
-741.599
-724.505
-707.993
-692.043
-676.633
-661.742
-647.349
-633.437
-619.985
-606.977
-594.398
-582.228
-570.455
-559.063
-548.037
-537.364
-527.033
-517.029
-507.34
-497.958
-488.869
-480.063
-471.531
-463.263
-455.248
-447.481
-439.95
-432.647
-425.567
-418.701
-412.04
-405.58
-399.313
-393.233
-387.334
-381.61
-376.055
-370.665
-367.438
-362.352
-357.411
-352.62
-347.969
-343.455
-339.068
-334.814
-330.685
-326.677
-322.785
-319.009
-315.346
-311.792
-308.344
-304.996
-301.752
-298.607
-295.559
-292.601
-289.738
-286.965
-284.28
-281.681
-279.166
-276.735
-274.386
-272.116
-269.925
-267.813
-265.778
-263.818
-261.93
-260.119
-258.38
-256.713
-255.118
-253.593
-252.14
-250.757
-249.443
-248.199
-247.025
-245.921
-244.886
-243.92
-243.025
-242.2
-241.445
-240.761
-240.149
-239.609
-239.142
-238.749
-238.43
-238.187
-238.021
-237.933
-237.925
-237.997
-238.151
-238.39
-238.715
-239.127
-239.629
-240.222
-240.91
-241.695
-242.578
-243.562
-244.652
-245.849
-247.155
-248.574
-250.11
-251.768
-253.547
-255.453
-257.489
-259.661
-261.971
-264.421
-267.018
-269.765
-272.666
-275.723
-278.941
-282.324
-285.879
-289.602
-293.501
-297.577
-301.839
-306.279
-310.904
-315.715
-320.716
-325.905
-331.278
-336.838
-342.582
-348.516
-354.623
-360.906
-367.361
-373.99
-380.773
-387.707
-394.784
-402
-409.345
-416.816
-424.398
-432.089
-439.876
-447.746
-455.697
-463.713
-471.791
-479.92
-488.085
-496.282
-504.508
-512.751
-520.998
-529.251
-537.495
-545.732
-553.953
-562.146
-570.316
-578.449
-586.55
-594.611
-602.623
-610.593
-618.508
-626.375
-634.186
-641.937
-649.632
-657.264
-664.837
-672.348
-679.791
-687.173
-694.486
-701.737
-708.917
-716.036
-723.084
-730.069
-736.987
-743.835
-750.621
-757.337
-763.991
-770.579
-777.099
-783.558
-789.95
-796.281
-802.55
-808.753
-814.897
-820.977
-826.999
-832.962
-838.862
-844.707
-850.49
-856.22
-861.893
-867.507
-873.065
-878.573
-884.026
-889.423
-894.77
-900.063
-905.307
-910.501
-915.642
-920.736
-925.78
-930.778
-935.728
-940.63
-945.487
-950.297
-955.065
-959.788
-964.465
-969.102
-973.694
-978.246
-982.757
-987.224
-991.653
-996.041
-1000.39
-1004.7
-1008.97
-1013.21
-1017.41
-1021.57
-1025.69
-1029.78
-1033.83
-1037.85
-1041.83
-1045.78
-1049.7
-1053.58
-1057.43
-1061.25
-1065.04
-1068.79
-1072.51
-1076.21
-1079.87
-1083.5
-1087.11
-1090.68
-1094.23
-1097.74
-1101.23
-1104.69
-1108.12
-1111.53
-1114.91
-1118.26
-1121.59
-1124.89
-1128.17
-1131.42
-1134.64
-1137.84
-1141.02
-1144.17
-1147.3
-1150.41
-1153.49
-1156.55
-1159.58
-1162.59
-1165.59
-1168.56
-1171.5
-1174.43
-1177.34
-1180.22
-1183.08
-1185.93
-1188.75
-1191.55
-1194.34
-1197.1
-1199.84
-1202.57
-1205.28
-1207.96
-1210.63
-1213.28
-1215.92
-1218.53
-1221.13
-1223.71
-1226.27
-1228.81
-1231.34
-1233.85
-1236.35
-1238.83
-1241.29
-1243.73
-1246.16
-1248.58
-1250.98
-1253.36
-1255.73
-1258.08
-1260.42
-1262.74
-1265.05
-1267.34
-1269.62
-1271.89
-1274.14
-1276.38
-1278.6
-1280.81
-1283.01
-1285.19
-1287.36
-1289.52
-1291.66
-1293.79
-1295.91
-1298.02
-1300.11
-1302.19
-1304.26
-1306.32
-1308.37
-1310.4
-1312.42
-1314.44
-1316.43
-1318.42
-1320.4
-1322.37
-1324.32
-1326.26
-1328.2
-1330.12
-1332.03
-1333.94
-1335.83
-1337.71
-1339.58
-1341.45
-1343.99
-1345.83
-1347.66
-1349.47
-1351.28
-1353.07
-1354.85
-1356.63
-1358.39
-1360.14
-1361.88
-1363.62
-1365.34
-1367.05
-1368.75
-1370.44
-1372.13
-1373.8
-1375.46
-1377.12
-1378.76
-1380.4
-1382.02
-1383.64
-1385.25
-1386.85
-1388.44
-1390.02
-1391.59
-1393.15
-1394.71
-1396.26
-1397.8
-1399.32
-1400.85
-1402.36
-1403.86
-1405.36
-1406.85
-1408.33
-1409.8
-1411.27
-1412.72
-1414.17
-1415.62
-1417.05
-1418.48
-1419.9
-1421.31
-1422.71
-1424.11
-1425.5
-1426.88
-1428.25
-1429.62
-1430.98
-1432.34
-1433.69
-1435.03
-1436.36
-1437.69
-1439.01
-1440.32
-1441.62
-1442.92
-1444.22
-1445.51
-1446.79
-1448.06
-1449.33
-1450.59
-1451.84
-1453.09
-1454.33
-1455.57
-1456.8
-1458.03
-1459.24
-1460.46
-1461.66
-1462.87
-1464.06
-1465.25
-1466.43
-1467.61
-1468.78
-1469.95
-1471.11
-1472.26
-1473.41
-1474.56
-1475.7
-1476.83
-1477.96
-1479.08
-1480.2
-1481.31
-1482.42
-1483.52
-1484.62
-1485.71
-1486.79
-1487.88
-1488.95
-1490.03
-1491.09
-1492.15
-1493.21
-1494.26
-1495.31
-1496.35
-1497.39
-1498.43
-1499.45
-1500.48
-1501.5
-1502.51
-1503.52
-1504.53
-1505.53
-1506.53
-1507.52
-1508.51
-1509.49
-1510.47
-1511.44
-1512.41
-1513.38
-1514.34
-1515.3
-1516.25
-1517.2
-1518.15
-1519.09
-1520.02
-1520.96
-1521.88
-1522.81
-1523.73
-1524.65
-1525.56
-1526.47
-1527.37
-1528.27
-1529.17
-1530.06
-1530.95
-1531.84
-1532.72
-1533.6
-1534.47
-1535.34
-1536.21
-1537.07
-1537.93
-1538.79
-1539.64
-1540.49
-1541.34
-1542.18
-1543.02
-1543.85
-1544.69
-1545.51
-1546.34
-1547.16
-1547.98
-1548.79
-1549.6
-1550.41
-1551.21
-1552.02
-1552.81
-1553.61
-1554.4
-1555.19
-1555.97
-1556.76
-1557.53
-1558.31
-1559.08
-1559.85
-1560.62
-1561.38
-1562.14
-1562.9
-1563.65
-1564.41
-1565.15
-1565.9
-1566.64
-1567.38
-1568.12
-1568.85
-1569.58
-1570.31
-1571.04
-1571.76
-1572.48
-1573.19
-1573.91
-1574.62
-1575.33
-1576.03
-1576.73
-1577.44
-1578.13
-1578.83
-1579.52
-1580.21
-1580.9
-1581.58
-1582.26
-1582.94
-1583.62
-1584.29
-1584.96
-1585.63
-1586.3
-1586.96
-1587.62
-1588.28
-1588.94
-1589.59
-1590.25
-1590.9
-1591.54
-1592.19
-1592.83
-1593.47
-1594.11
-1594.74
-1595.38
-1596.01
-1596.64
-1597.26
-1597.88
-1598.51
-1599.13
-1599.74
-1600.36
-1600.97
-1601.58
-1602.19
-1602.79
-1603.4
-1604
-1604.6
-1605.2
-1605.79
-1606.38
-1606.97
-1607.56
-1608.15
-1608.74
-1609.32
-1609.9
-1610.48
-1611.05
-1611.63
-1612.2
-1612.77
-1613.34
-1613.9
-1614.47
-1615.03
-1615.59
-1616.15
-1616.71
-1617.26
-1617.81
-1618.37
-1618.91
-1619.46
-1620.01
-1620.55
-1621.09
-1621.63
-1622.17
-1622.7
-1623.24
-1623.77
-1624.3
-1624.83
-1625.36
-1625.88
-1626.41
-1626.93
-1627.45
-1627.96
-1628.48
-1629
-1629.51
-1630.02
-1630.53
-1631.04
-1631.54
-1632.05
-1632.55
-1633.05
-1633.55
-1634.05
-1634.55
-1635.04
-1635.53
-1636.03
-1636.52
-1637
-1637.49
-1637.98
-1638.46
-1638.94
-1639.42
-1639.9
-1640.38
-1640.85
-1641.33
-1641.8
-1642.27
-1642.74
-1643.21
-1643.68
-1644.14
-1644.61
-1645.07
-1645.53
-1645.99
-1646.45
-1646.9
-1647.36
-1647.81
-1648.27
-1648.72
-1649.17
-1649.61
-1650.06
-1650.51
-1650.95
-1651.39
-1651.83
-1652.27
-1652.71
-1653.15
-1653.59
-1654.02
-1654.45
-1654.89
-1655.32
-1655.75
-1656.18
-1656.61
-1657.03
-1657.46
-1657.88
-1658.3
-1658.72
-1659.14
-1659.56
-1659.98
-1660.4
-1660.81
-1661.22
-1661.64
-1662.05
-1662.46
-1662.87
-1663.28
-1663.68
-1664.09
-1664.49
-1664.9
-1665.3
-1665.7
-1666.1
-1666.5
-1666.89
-1667.29
-1667.69
-1668.08
-1668.47
-1668.86
-1669.26
-1669.65
-1670.03
-1670.42
-1670.81
-1671.19
-1671.58
-1671.96
-1672.34
-1672.73
-1673.11
-1673.48
-1673.86
-1674.24
-1674.62
-1674.99
-1675.37
-1675.74
-1676.11
-1676.48
-1676.85
-1677.22
-1677.59
-1677.96
-1678.33
-1678.69
-1679.06
-1679.42
-1679.78
-1680.14
-1680.51
-1680.87
-1681.22
-1681.58
-1681.94
-1682.3
-1682.65
-1683.01
-1683.36
-1683.71
-1684.07
-1684.42
-1684.77
-1685.12
-1685.47
-1685.81
-1686.16
-1686.51
-1686.85
-1687.2
-1687.54
-1687.92
-1688.36
-1688.88
-1689.49
-1690.21
-1691.06
-1692.06
-1693.22
-1694.58
-1696.17
-1698.02
-1700.17
-1702.65
-1705.52
-1708.8
-1712.55
-1716.8
-1721.59
-1726.95
-1732.9
-1739.44
-1746.54
-1754.17
-1762.27
-1770.73
-1779.46
-1788.32
-1797.21
-1806
-1814.62
-1823
-1831.13
-1838.99
-1846.56
-1853.76
-1860.43
-1866.31
-1870.97
-1873.8
-2518.18
-2621.34
-2893.46
-3386.54
-4106.57
-4970.26
-5801.32
-6446.54
-6868.6
-7112.61
-7255.97
-7375.05
-7503.11
-7641.67
-7792.73
-7959.09
-8144.8
-8356.16
-8603.5
-8904.26
-9281.48
-2518.16
-2621.5
-2894.22
-3388.89
-4112.2
-4980.29
-5814.69
-6461.12
-6882.82
-7125.97
-7268.51
-7386.69
-7513.5
-7650.26
-7798.7
-7961.05
-8140.32
-8340.45
-8566.21
-8821.46
-9100.94
-2518.15
-2621.67
-2894.97
-3391.2
-4117.66
-4989.7
-5826.5
-6472.69
-6892.4
-7133.3
-7274.03
-7390.34
-7514.64
-7648.01
-7791.73
-7947.31
-8116.48
-8300.95
-8501.54
-8716.16
-8935.08
-2518.13
-2621.84
-2895.72
-3393.46
-4122.93
-4998.49
-5836.77
-6481.32
-6897.5
-7134.92
-7272.94
-7386.56
-7507.38
-7636.16
-7773.74
-7920.94
-8078.46
-8246.47
-8423.85
-8606.87
-8787.34
-2518.11
-2622
-2896.45
-3395.69
-4128.03
-5006.67
-5845.52
-6487.07
-6898.33
-7131.19
-7265.8
-7376.09
-7492.71
-7616.14
-7746.8
-7885
-8030.72
-8183.29
-8340.91
-8499.95
-8654.41
-2518.09
-2622.17
-2897.18
-3397.88
-4132.94
-5014.23
-5852.75
-6490.06
-6895.14
-7122.57
-7253.23
-7359.76
-7471.74
-7589.39
-7712.87
-7842.08
-7976.61
-8115.44
-8256.67
-8397.26
-8532.98
-2518.07
-2622.33
-2897.91
-3400.04
-4137.67
-5021.17
-5858.49
-6490.37
-6888.21
-7109.55
-7235.89
-7338.39
-7445.48
-7557.25
-7673.6
-7794.23
-7918.51
-8045.36
-8173.02
-8299.09
-8420.55
-2518.05
-2622.49
-2898.63
-3402.15
-4142.21
-5027.5
-5862.79
-6488.15
-6877.85
-7092.61
-7214.41
-7312.74
-7414.9
-7520.84
-7630.34
-7742.98
-7858.05
-7974.51
-8090.86
-8205.21
-8315.36
-2518.03
-2622.65
-2899.34
-3404.22
-4146.57
-5033.22
-5865.67
-6483.54
-6864.38
-7072.24
-7189.39
-7283.52
-7380.82
-7481.14
-7584.18
-7689.46
-7796.31
-7903.75
-8010.55
-8115.22
-8216.11
-2518.02
-2622.81
-2900.04
-3406.24
-4150.75
-5038.35
-5867.17
-6476.66
-6848.1
-7048.89
-7161.37
-7251.36
-7343.94
-7438.9
-7535.92
-7634.5
-7734.01
-7833.6
-7932.24
-8028.73
-8121.84
-2518
-2622.97
-2900.74
-3408.23
-4154.75
-5042.87
-5867.34
-6467.67
-6829.3
-7022.96
-7130.83
-7216.79
-7304.85
-7394.76
-7486.2
-7578.69
-7671.64
-7764.34
-7855.9
-7945.39
-8031.84
-2517.98
-2623.13
-2901.43
-3410.18
-4158.56
-5046.81
-5866.21
-6456.73
-6808.27
-6994.83
-7098.2
-7180.27
-7264.02
-7349.21
-7435.5
-7522.44
-7609.52
-7696.11
-7781.49
-7864.88
-7945.52
-2517.96
-2623.28
-2902.11
-3412.09
-4162.19
-5050.17
-5863.85
-6443.96
-6785.27
-6964.84
-7063.84
-7142.19
-7221.87
-7302.64
-7384.17
-7466.07
-7547.86
-7629.01
-7708.91
-7786.93
-7862.44
-2517.94
-2623.44
-2902.78
-3413.96
-4165.63
-5052.95
-5860.29
-6429.52
-6760.53
-6933.26
-7028.07
-7102.87
-7178.72
-7255.36
-7332.51
-7409.8
-7486.81
-7563.07
-7638.09
-7711.32
-7782.26
-2517.92
-2623.6
-2903.45
-3415.78
-4168.9
-5055.17
-5855.58
-6413.55
-6734.29
-6900.37
-6991.15
-7062.58
-7134.82
-7207.62
-7280.72
-7353.78
-7426.44
-7498.3
-7568.91
-7637.84
-7704.66
-2517.9
-2623.75
-2904.11
-3417.57
-4171.98
-5056.84
-5849.78
-6396.18
-6706.73
-6866.37
-6953.3
-7021.55
-7090.39
-7159.61
-7228.96
-7298.14
-7366.83
-7434.67
-7501.3
-7566.33
-7629.4
-2517.88
-2623.9
-2904.77
-3419.31
-4174.88
-5057.96
-5842.93
-6377.52
-6678.04
-6831.47
-6914.74
-6979.95
-7045.6
-7111.48
-7177.36
-7242.96
-7308
-7372.17
-7435.16
-7496.64
-7556.29
-2517.86
-2624.05
-2905.41
-3421.02
-4177.6
-5058.55
-5835.1
-6357.71
-6648.37
-6795.83
-6875.6
-6937.96
-7000.61
-7063.36
-7126
-7188.29
-7249.97
-7310.78
-7370.43
-7428.65
-7485.15
-2517.84
-2624.2
-2906.05
-3422.68
-4180.15
-5058.62
-5826.32
-6336.85
-6617.87
-6759.6
-6836.04
-6895.69
-6955.51
-7015.34
-7074.97
-7134.18
-7192.76
-7250.46
-7307.03
-7362.24
-7415.84
-2517.82
-2624.35
-2906.69
-3424.3
-4182.51
-5058.17
-5816.65
-6315.04
-6586.67
-6722.89
-6796.17
-6853.25
-6910.42
-6967.5
-7024.31
-7080.67
-7136.36
-7191.18
-7244.91
-7297.33
-7348.23
-2517.8
-2624.5
-2907.31
-3425.88
-4184.7
-5057.22
-5806.13
-6292.39
-6554.87
-6685.82
-6756.09
-6810.75
-6865.41
-6919.91
-6974.09
-7027.77
-7080.78
-7132.92
-7184
-7233.82
-7282.21
-2517.78
-2624.65
-2907.93
-3427.42
-4186.72
-5055.79
-5794.82
-6268.99
-6522.58
-6648.49
-6715.89
-6768.25
-6820.54
-6872.61
-6924.32
-6975.51
-7026
-7075.64
-7124.25
-7171.66
-7217.69
-2517.76
-2624.8
-2908.54
-3428.92
-4188.55
-5053.88
-5782.77
-6244.91
-6489.89
-6610.96
-6675.64
-6725.82
-6775.87
-6825.65
-6875.04
-6923.88
-6972.03
-7019.33
-7065.62
-7110.76
-7154.6
-2517.74
-2624.94
-2909.14
-3430.37
-4190.22
-5051.51
-5770.01
-6220.23
-6456.87
-6573.32
-6635.4
-6683.51
-6731.44
-6779.07
-6826.26
-6872.9
-6918.84
-6963.94
-7008.07
-7051.08
-7092.84
-2517.72
-2625.09
-2909.74
-3431.79
-4191.71
-5048.69
-5756.59
-6195.03
-6423.59
-6535.62
-6595.23
-6641.37
-6687.29
-6732.87
-6778.01
-6822.56
-6866.43
-6909.46
-6951.55
-6992.56
-7032.37
-2517.7
-2625.23
-2910.33
-3433.16
-4193.04
-5045.43
-5742.55
-6169.36
-6390.13
-6497.91
-6555.17
-6599.44
-6643.45
-6687.1
-6730.28
-6772.87
-6814.78
-6855.87
-6896.03
-6935.15
-6973.11
-2517.68
-2625.37
-2910.91
-3434.49
-4194.19
-5041.75
-5727.94
-6143.29
-6356.52
-6460.25
-6515.26
-6557.75
-6599.95
-6641.76
-6683.09
-6723.83
-6763.88
-6803.13
-6841.47
-6878.81
-6915.03
-2517.66
-2625.52
-2911.49
-3435.79
-4195.18
-5037.65
-5712.79
-6116.88
-6322.83
-6422.67
-6475.53
-6516.32
-6556.8
-6596.87
-6636.45
-6675.43
-6713.73
-6751.24
-6787.86
-6823.51
-6858.07
-2517.64
-2625.66
-2912.05
-3437.04
-4196
-5033.15
-5697.15
-6090.18
-6289.1
-6385.2
-6436.02
-6475.19
-6514.03
-6552.45
-6590.36
-6627.67
-6664.31
-6700.17
-6735.16
-6769.2
-6802.2
-2517.61
-2625.8
-2912.61
-3438.25
-4196.66
-5028.27
-5681.04
-6063.22
-6255.35
-6347.89
-6396.74
-6434.37
-6471.65
-6508.49
-6544.82
-6580.55
-6615.6
-6649.9
-6683.35
-6715.86
-6747.37
-2517.59
-2625.94
-2913.17
-3439.42
-4197.16
-5023.02
-5664.51
-6036.06
-6221.64
-6310.75
-6357.73
-6393.89
-6429.67
-6465.01
-6499.83
-6534.06
-6567.61
-6600.41
-6632.39
-6663.46
-6693.56
-2517.57
-2626.07
-2913.71
-3440.55
-4197.5
-5017.4
-5647.58
-6008.73
-6187.99
-6273.81
-6319
-6353.74
-6388.1
-6422.01
-6455.4
-6488.19
-6520.31
-6551.7
-6582.28
-6611.97
-6640.71
-2517.55
-2626.21
-2914.25
-3441.63
-4197.68
-5011.43
-5630.29
-5981.26
-6154.43
-6237.09
-6280.56
-6313.95
-6346.95
-6379.5
-6411.51
-6442.94
-6473.7
-6503.74
-6532.98
-6561.36
-6588.82
-2517.53
-2626.34
-2914.78
-3442.68
-4197.71
-5005.13
-5612.66
-5953.7
-6120.97
-6200.61
-6242.43
-6274.53
-6306.23
-6337.47
-6368.18
-6398.29
-6427.76
-6456.51
-6484.48
-6511.61
-6537.84
-2517.51
-2626.48
-2915.3
-3443.69
-4197.58
-4998.5
-5594.74
-5926.06
-6087.65
-6164.37
-6204.61
-6235.48
-6265.94
-6295.93
-6325.39
-6354.26
-6382.48
-6410.01
-6436.77
-6462.7
-6487.76
-2517.48
-2626.61
-2915.82
-3444.65
-4197.3
-4991.57
-5576.53
-5898.38
-6054.49
-6128.41
-6167.14
-6196.82
-6226.08
-6254.88
-6283.14
-6310.82
-6337.87
-6364.22
-6389.82
-6414.61
-6438.55
-2517.46
-2626.74
-2916.33
-3445.58
-4196.87
-4984.33
-5558.08
-5870.69
-6021.49
-6092.73
-6130
-6158.55
-6186.67
-6214.32
-6241.44
-6267.98
-6293.89
-6319.12
-6343.62
-6367.32
-6390.18
-2517.44
-2626.88
-2916.83
-3446.47
-4196.29
-4976.8
-5539.39
-5842.99
-5988.69
-6057.34
-6093.21
-6120.66
-6147.69
-6174.25
-6200.27
-6225.73
-6250.55
-6274.71
-6298.14
-6320.81
-6342.65
-2517.42
-2627.01
-2917.32
-3447.31
-4195.57
-4969
-5520.51
-5815.33
-5956.08
-6022.24
-6056.77
-6083.18
-6109.16
-6134.66
-6159.64
-6184.05
-6207.84
-6230.97
-6253.39
-6275.05
-6295.91
-2517.4
-2627.14
-2917.81
-3448.12
-4194.7
-4960.93
-5501.44
-5787.7
-5923.69
-5987.45
-6020.69
-6046.1
-6071.07
-6095.56
-6119.54
-6142.94
-6165.74
-6187.89
-6209.34
-6230.05
-6249.97
-2517.37
-2627.26
-2918.29
-3448.88
-4193.7
-4952.61
-5482.21
-5760.14
-5891.52
-5952.98
-5984.98
-6009.41
-6033.42
-6056.94
-6079.95
-6102.4
-6124.25
-6145.45
-6165.97
-6185.77
-6204.79
-2517.35
-2627.39
-2918.76
-3449.61
-4192.55
-4944.05
-5462.84
-5732.66
-5859.59
-5918.82
-5949.63
-5973.13
-5996.21
-6018.81
-6040.89
-6062.42
-6083.35
-6103.66
-6123.28
-6142.2
-6160.36
-2517.33
-2627.52
-2919.22
-3450.3
-4191.27
-4935.25
-5443.35
-5705.27
-5827.9
-5884.99
-5914.64
-5937.26
-5959.44
-5981.15
-6002.34
-6022.99
-6043.05
-6062.48
-6081.26
-6099.33
-6116.67
-2517.31
-2627.64
-2919.68
-3450.95
-4189.86
-4926.24
-5423.75
-5677.98
-5796.46
-5851.48
-5880.03
-5901.79
-5923.11
-5943.96
-5964.3
-5984.1
-6003.32
-6021.93
-6039.88
-6057.15
-6073.69
-2517.28
-2627.77
-2920.13
-3451.56
-4188.31
-4917.01
-5404.06
-5650.81
-5765.27
-5818.31
-5845.8
-5866.73
-5887.22
-5907.25
-5926.77
-5945.76
-5964.17
-5981.98
-5999.15
-6015.64
-6031.42
-2517.26
-2627.89
-2920.57
-3452.13
-4186.63
-4907.58
-5384.3
-5623.77
-5734.35
-5785.47
-5811.93
-5832.07
-5851.77
-5871
-5889.74
-5907.94
-5925.58
-5942.62
-5959.03
-5974.78
-5989.84
-2517.24
-2628.01
-2921.01
-3452.66
-4184.83
-4897.96
-5364.48
-5596.87
-5703.7
-5752.96
-5778.44
-5797.81
-5816.74
-5835.22
-5853.19
-5870.65
-5887.54
-5903.85
-5919.54
-5934.58
-5948.93
-2517.21
-2628.13
-2921.44
-3453.15
-4182.9
-4888.16
-5344.61
-5570.12
-5673.31
-5720.8
-5745.32
-5763.95
-5782.15
-5799.89
-5817.14
-5833.87
-5850.05
-5865.65
-5880.64
-5895
-5908.68
-2517.19
-2628.25
-2921.86
-3453.61
-4180.85
-4878.18
-5324.71
-5543.52
-5643.21
-5688.97
-5712.58
-5730.49
-5747.98
-5765.02
-5781.57
-5797.6
-5813.09
-5828.02
-5842.34
-5856.04
-5869.08
-2517.17
-2628.37
-2922.27
-3454.02
-4178.68
-4868.04
-5304.79
-5517.09
-5613.38
-5657.48
-5680.2
-5697.43
-5714.24
-5730.6
-5746.47
-5761.84
-5776.67
-5790.94
-5804.62
-5817.69
-5830.11
-2517.14
-2628.49
-2922.67
-3454.4
-4176.39
-4857.75
-5284.87
-5490.83
-5583.83
-5626.33
-5648.2
-5664.77
-5680.92
-5696.62
-5711.85
-5726.57
-5740.77
-5754.41
-5767.47
-5779.93
-5791.76
-2517.12
-2628.6
-2923.07
-3454.74
-4173.99
-4847.31
-5264.94
-5464.74
-5554.57
-5595.52
-5616.56
-5632.5
-5648.02
-5663.09
-5677.69
-5691.79
-5705.38
-5718.42
-5730.89
-5742.77
-5754.02
-2517.1
-2628.72
-2923.46
-3455.05
-4171.47
-4836.73
-5245.03
-5438.84
-5525.59
-5565.04
-5585.3
-5600.62
-5615.52
-5629.99
-5643.99
-5657.5
-5670.49
-5682.95
-5694.86
-5706.17
-5716.88
-2517.07
-2628.83
-2923.85
-3455.31
-4168.84
-4826.03
-5225.13
-5413.12
-5496.9
-5534.91
-5554.4
-5569.13
-5583.44
-5597.32
-5610.74
-5623.68
-5636.11
-5648.01
-5659.36
-5670.14
-5680.33
-2517.05
-2628.95
-2924.22
-3455.54
-4166.1
-4815.2
-5205.27
-5387.6
-5468.5
-5505.11
-5523.86
-5538.02
-5551.77
-5565.08
-5577.94
-5590.33
-5602.21
-5613.58
-5624.41
-5634.67
-5644.34
-2517.03
-2629.06
-2924.59
-3455.74
-4163.26
-4804.26
-5185.45
-5362.27
-5440.38
-5475.65
-5493.68
-5507.29
-5520.49
-5533.26
-5545.59
-5557.44
-5568.8
-5579.65
-5589.97
-5599.73
-5608.92
-2517
-2629.17
-2924.95
-3455.89
-4160.31
-4793.21
-5165.67
-5337.14
-5412.56
-5446.52
-5463.86
-5476.94
-5489.61
-5501.86
-5513.66
-5525
-5535.86
-5546.22
-5556.04
-5565.33
-5574.05
-2516.98
-2629.28
-2925.31
-3456.01
-4157.27
-4782.06
-5145.95
-5312.22
-5385.02
-5417.72
-5434.4
-5446.96
-5459.13
-5470.87
-5482.17
-5493.02
-5503.39
-5513.27
-5522.63
-5531.45
-5539.72
-2516.95
-2629.39
-2925.65
-3456.1
-4154.12
-4770.82
-5126.29
-5287.49
-5357.77
-5389.26
-5405.29
-5417.36
-5429.03
-5440.29
-5451.11
-5461.48
-5471.39
-5480.8
-5489.71
-5498.09
-5505.93
-2516.93
-2629.5
-2925.99
-3456.14
-4150.87
-4759.49
-5106.69
-5262.98
-5330.81
-5361.12
-5376.53
-5388.12
-5399.32
-5410.1
-5420.47
-5430.38
-5439.83
-5448.8
-5457.28
-5465.23
-5472.66
-2516.9
-2629.6
-2926.33
-3456.16
-4147.53
-4748.09
-5087.17
-5238.68
-5304.13
-5333.31
-5348.12
-5359.25
-5369.99
-5380.32
-5390.23
-5399.71
-5408.72
-5417.27
-5425.32
-5432.87
-5439.89
-2516.88
-2629.71
-2926.65
-3456.13
-4144.1
-4736.61
-5067.72
-5214.58
-5277.74
-5305.82
-5320.05
-5330.73
-5341.03
-5350.93
-5360.41
-5369.46
-5378.05
-5386.19
-5393.84
-5400.99
-5407.63
-2516.85
-2629.81
-2926.97
-3456.08
-4140.58
-4725.06
-5048.36
-5190.7
-5251.63
-5278.65
-5292.32
-5302.57
-5312.44
-5321.92
-5330.98
-5339.62
-5347.82
-5355.55
-5362.82
-5369.59
-5375.86
-2516.83
-2629.92
-2927.28
-3455.98
-4136.97
-4713.45
-5029.08
-5167.03
-5225.81
-5251.8
-5264.93
-5274.76
-5284.22
-5293.29
-5301.96
-5310.2
-5318
-5325.36
-5332.25
-5338.66
-5344.57
-2516.8
-2630.02
-2927.58
-3455.86
-4133.27
-4701.79
-5009.9
-5143.58
-5200.27
-5225.26
-5237.87
-5247.31
-5256.37
-5265.04
-5273.32
-5281.18
-5288.61
-5295.6
-5302.13
-5308.19
-5313.76
-2516.78
-2630.12
-2927.88
-3455.7
-4129.49
-4690.08
-4990.82
-5120.34
-5175.01
-5199.04
-5211.15
-5220.19
-5228.87
-5237.16
-5245.07
-5252.56
-5259.63
-5266.27
-5272.45
-5278.17
-5283.41
-2516.75
-2630.22
-2928.17
-3455.5
-4125.63
-4678.32
-4971.83
-5097.32
-5150.03
-5173.13
-5184.75
-5193.42
-5201.72
-5209.65
-5217.19
-5224.33
-5231.06
-5237.35
-5243.2
-5248.59
-5253.52
-2516.73
-2630.32
-2928.45
-3455.27
-4121.69
-4666.53
-4952.95
-5074.51
-5125.33
-5147.52
-5158.67
-5166.98
-5174.92
-5182.5
-5189.7
-5196.49
-5202.88
-5208.84
-5214.37
-5219.45
-5224.07
-2516.7
-2630.42
-2928.72
-3455.01
-4117.67
-4654.69
-4934.18
-5051.92
-5100.9
-5122.22
-5132.91
-5140.87
-5148.47
-5155.71
-5162.57
-5169.03
-5175.1
-5180.74
-5185.96
-5190.74
-5195.07
-2516.68
-2630.52
-2928.99
-3454.72
-4113.57
-4642.83
-4915.52
-5029.54
-5076.74
-5097.22
-5107.47
-5115.09
-5122.36
-5129.26
-5135.8
-5141.95
-5147.7
-5153.04
-5157.96
-5162.45
-5166.5
-2516.65
-2630.61
-2929.25
-3454.39
-4109.41
-4630.95
-4896.96
-5007.38
-5052.85
-5072.52
-5082.34
-5089.63
-5096.58
-5103.17
-5109.39
-5115.23
-5120.68
-5125.73
-5130.36
-5134.57
-5138.35
-2516.62
-2630.71
-2929.5
-3454.03
-4105.17
-4619.04
-4878.53
-4985.44
-5029.23
-5048.11
-5057.52
-5064.49
-5071.13
-5077.41
-5083.33
-5088.87
-5094.03
-5098.8
-5103.16
-5107.1
-5110.61
-2516.6
-2630.8
-2929.74
-3453.64
-4100.86
-4607.11
-4860.21
-4963.71
-5005.88
-5024
-5033.01
-5039.67
-5046
-5051.99
-5057.62
-5062.88
-5067.76
-5072.25
-5076.34
-5080.02
-5083.28
-2516.57
-2630.9
-2929.98
-3453.21
-4096.48
-4595.18
-4842.01
-4942.19
-4982.79
-5000.17
-5008.79
-5015.16
-5021.2
-5026.9
-5032.25
-5037.23
-5041.84
-5046.07
-5049.91
-5053.34
-5056.36
-2516.55
-2630.99
-2930.21
-3452.76
-4092.04
-4583.23
-4823.93
-4920.89
-4959.96
-4976.62
-4984.87
-4990.96
-4996.72
-5002.14
-5007.22
-5011.93
-5016.28
-5020.26
-5023.85
-5027.04
-5029.82
-2516.52
-2631.08
-2930.44
-3452.27
-4087.54
-4571.28
-4805.98
-4899.8
-4937.39
-4953.36
-4961.25
-4967.06
-4972.55
-4977.7
-4982.51
-4986.98
-4991.08
-4994.81
-4998.15
-5001.11
-5003.67
-2516.49
-2631.17
-2930.65
-3451.75
-4082.97
-4559.32
-4788.15
-4878.92
-4915.08
-4930.38
-4937.92
-4943.46
-4948.68
-4953.58
-4958.14
-4962.35
-4966.21
-4969.7
-4972.82
-4975.56
-4977.91
-2516.47
-2631.26
-2930.86
-3451.2
-4078.35
-4547.37
-4770.45
-4858.25
-4893.02
-4907.67
-4914.87
-4920.15
-4925.12
-4929.77
-4934.09
-4938.06
-4941.68
-4944.95
-4947.85
-4950.37
-4952.51
-2516.44
-2631.35
-2931.07
-3450.62
-4073.67
-4535.43
-4752.87
-4837.78
-4871.21
-4885.23
-4892.1
-4897.14
-4901.86
-4906.27
-4910.35
-4914.09
-4917.49
-4920.54
-4923.22
-4925.54
-4927.47
-2516.41
-2631.43
-2931.26
-3450.01
-4068.93
-4523.49
-4735.42
-4817.53
-4849.65
-4863.06
-4869.62
-4874.41
-4878.9
-4883.07
-4886.92
-4890.44
-4893.62
-4896.46
-4898.94
-4901.05
-4902.8
-2516.39
-2631.52
-2931.45
-3449.37
-4064.13
-4511.56
-4718.1
-4797.48
-4828.33
-4841.16
-4847.41
-4851.97
-4856.22
-4860.17
-4863.8
-4867.11
-4870.08
-4872.71
-4874.99
-4876.92
-4878.48
-2516.36
-2631.6
-2931.63
-3448.71
-4059.29
-4499.65
-4700.91
-4777.64
-4807.26
-4819.52
-4825.47
-4829.8
-4833.84
-4837.57
-4840.99
-4844.08
-4846.85
-4849.29
-4851.38
-4853.12
-4854.5
-2516.33
-2631.69
-2931.81
-3448.01
-4054.39
-4487.75
-4683.85
-4758
-4786.43
-4798.13
-4803.8
-4807.91
-4811.74
-4815.26
-4818.47
-4821.36
-4823.94
-4826.18
-4828.09
-4829.65
-4830.86
-2516.3
-2631.77
-2931.97
-3447.28
-4049.45
-4475.88
-4666.93
-4738.57
-4765.84
-4777.01
-4782.4
-4786.3
-4789.91
-4793.23
-4796.24
-4798.94
-4801.33
-4803.39
-4805.12
-4806.51
-4807.55
-2516.28
-2631.85
-2932.13
-3446.53
-4044.46
-4464.02
-4650.13
-4719.33
-4745.48
-4756.13
-4761.25
-4764.95
-4768.36
-4771.48
-4774.3
-4776.82
-4779.02
-4780.91
-4782.47
-4783.69
-4784.58
-2516.25
-2631.93
-2932.29
-3445.74
-4039.42
-4452.19
-4633.47
-4700.29
-4725.36
-4735.5
-4740.36
-4743.86
-4747.08
-4750.01
-4752.65
-4754.98
-4757.01
-4758.73
-4760.12
-4761.19
-4761.92
-2516.22
-2632.01
-2932.43
-3444.93
-4034.34
-4440.39
-4616.93
-4681.45
-4705.46
-4715.12
-4719.73
-4723.04
-4726.07
-4728.81
-4731.27
-4733.43
-4735.29
-4736.84
-4738.08
-4738.99
-4739.57
-2516.19
-2632.09
-2932.57
-3444.09
-4029.22
-4428.62
-4600.54
-4662.8
-4685.79
-4694.98
-4699.35
-4702.47
-4705.32
-4707.89
-4710.17
-4712.17
-4713.86
-4715.25
-4716.33
-4717.1
-4717.54
-2516.17
-2632.16
-2932.7
-3443.22
-4024.06
-4416.88
-4584.27
-4644.35
-4666.35
-4675.08
-4679.21
-4682.15
-4684.83
-4687.23
-4689.34
-4691.17
-4692.71
-4693.95
-4694.88
-4695.51
-4695.81
-2516.14
-2632.24
-2932.83
-3442.33
-4018.85
-4405.17
-4568.14
-4626.09
-4647.13
-4655.42
-4659.32
-4662.09
-4664.59
-4666.82
-4668.78
-4670.45
-4671.84
-4672.93
-4673.72
-4674.21
-4674.39
-2516.11
-2632.31
-2932.95
-3441.41
-4013.62
-4393.49
-4552.13
-4608.02
-4628.12
-4635.99
-4639.67
-4642.27
-4644.61
-4646.68
-4648.48
-4650
-4651.24
-4652.19
-4652.85
-4653.2
-4653.25
-2516.08
-2632.39
-2933.06
-3440.46
-4008.34
-4381.86
-4536.26
-4590.14
-4609.34
-4616.78
-4620.25
-4622.69
-4624.87
-4626.79
-4628.44
-4629.81
-4630.91
-4631.72
-4632.25
-4632.47
-4632.4
-2516.05
-2632.46
-2933.17
-3439.49
-4003.03
-4370.26
-4520.53
-4572.45
-4590.76
-4597.81
-4601.07
-4603.35
-4605.38
-4607.15
-4608.65
-4609.88
-4610.84
-4611.52
-4611.92
-4612.03
-4611.84
-2516.03
-2632.53
-2933.26
-3438.49
-3997.69
-4358.7
-4504.92
-4554.94
-4572.4
-4579.06
-4582.12
-4584.24
-4586.12
-4587.75
-4589.11
-4590.21
-4591.04
-4591.59
-4591.86
-4591.85
-4591.55
-2516
-2632.6
-2933.35
-3437.46
-3992.31
-4347.18
-4489.45
-4537.61
-4554.25
-4560.53
-4563.39
-4565.37
-4567.11
-4568.59
-4569.82
-4570.79
-4571.49
-4571.92
-4572.07
-4571.95
-4571.53
-2515.97
-2632.67
-2933.44
-3436.41
-3986.91
-4335.71
-4474.1
-4520.47
-4536.3
-4542.21
-4544.89
-4546.73
-4548.33
-4549.67
-4550.77
-4551.61
-4552.19
-4552.5
-4552.54
-4552.3
-4551.79
-2515.94
-2632.74
-2933.52
-3435.34
-3981.47
-4324.28
-4458.89
-4503.5
-4518.56
-4524.12
-4526.61
-4528.31
-4529.77
-4530.99
-4531.96
-4532.68
-4533.14
-4533.33
-4533.26
-4532.92
-4532.31
-2515.91
-2632.81
-2933.59
-3434.24
-3976.01
-4312.9
-4443.81
-4486.72
-4501.01
-4506.23
-4508.55
-4510.12
-4511.45
-4512.54
-4513.39
-4513.98
-4514.33
-4514.42
-4514.24
-4513.8
-4513.09
-2515.88
-2632.87
-2933.65
-3433.12
-3970.53
-4301.57
-4428.86
-4470.11
-4483.67
-4488.55
-4490.7
-4492.14
-4493.34
-4494.31
-4495.04
-4495.53
-4495.76
-4495.74
-4495.46
-4494.92
-4494.12
-2515.85
-2632.94
-2933.71
-3431.97
-3965.01
-4290.28
-4414.03
-4453.67
-4466.52
-4471.08
-4473.06
-4474.38
-4475.46
-4476.31
-4476.93
-4477.3
-4477.43
-4477.3
-4476.93
-4476.29
-4475.4
-2515.82
-2633
-2933.76
-3430.8
-3959.48
-4279.04
-4399.34
-4437.4
-4449.56
-4453.81
-4455.63
-4456.83
-4457.79
-4458.53
-4459.03
-4459.3
-4459.32
-4459.1
-4458.63
-4457.91
-4456.93
-2515.79
-2633.07
-2933.81
-3429.6
-3953.92
-4267.86
-4384.77
-4421.31
-4432.8
-4436.74
-4438.41
-4439.49
-4440.34
-4440.97
-4441.36
-4441.53
-4441.45
-4441.13
-4440.57
-4439.76
-4438.7
-2515.76
-2633.13
-2933.84
-3428.39
-3948.34
-4256.72
-4370.33
-4405.38
-4416.22
-4419.87
-4421.39
-4422.35
-4423.09
-4423.61
-4423.91
-4423.97
-4423.8
-4423.39
-4422.74
-4421.85
-4420.71
-2515.73
-2633.19
-2933.88
-3427.15
-3942.74
-4245.64
-4356.01
-4389.62
-4399.83
-4403.2
-4404.57
-4405.42
-4406.06
-4406.47
-4406.67
-4406.64
-4406.37
-4405.88
-4405.14
-4404.17
-4402.95
-2515.7
-2633.25
-2933.9
-3425.88
-3937.13
-4234.61
-4341.83
-4374.02
-4383.62
-4386.71
-4387.94
-4388.69
-4389.22
-4389.54
-4389.64
-4389.51
-4389.16
-4388.58
-4387.76
-4386.71
-4385.42
-2515.67
-2633.31
-2933.92
-3424.6
-3931.49
-4223.64
-4327.76
-4358.59
-4367.59
-4370.42
-4371.51
-4372.16
-4372.59
-4372.81
-4372.82
-4372.6
-4372.16
-4371.5
-4370.6
-4369.48
-4368.11
-2515.64
-2633.36
-2933.93
-3423.29
-3925.84
-4212.72
-4313.82
-4343.32
-4351.75
-4354.31
-4355.28
-4355.82
-4356.16
-4356.28
-4356.2
-4355.9
-4355.38
-4354.63
-4353.66
-4352.46
-4351.03
-2515.61
-2633.42
-2933.93
-3421.96
-3920.17
-4201.86
-4300.01
-4328.21
-4336.07
-4338.39
-4339.22
-4339.67
-4339.92
-4339.95
-4339.78
-4339.4
-4338.79
-4337.97
-4336.93
-4335.66
-4334.16
-2515.58
-2633.48
-2933.93
-3420.61
-3914.49
-4191.05
-4286.31
-4313.25
-4320.57
-4322.65
-4323.36
-4323.71
-4323.87
-4323.82
-4323.56
-4323.09
-4322.42
-4321.52
-4320.41
-4319.07
-4317.51
-2515.55
-2633.53
-2933.93
-3419.24
-3908.8
-4180.3
-4272.74
-4298.45
-4305.25
-4307.09
-4307.68
-4307.94
-4308.01
-4307.87
-4307.54
-4306.99
-4306.24
-4305.27
-4304.09
-4302.69
-4301.07
-2515.52
-2633.58
-2933.91
-3417.85
-3903.09
-4169.61
-4259.29
-4283.81
-4290.09
-4291.7
-4292.17
-4292.35
-4292.33
-4292.12
-4291.7
-4291.08
-4290.26
-4289.22
-4287.98
-4286.52
-4284.84
-2515.49
-2633.64
-2933.89
-3416.44
-3897.37
-4158.97
-4245.96
-4269.32
-4275.1
-4276.49
-4276.85
-4276.94
-4276.84
-4276.55
-4276.06
-4275.37
-4274.47
-4273.37
-4272.06
-4270.54
-4268.81
-2515.46
-2633.69
-2933.86
-3415.01
-3891.65
-4148.4
-4232.75
-4254.97
-4260.28
-4261.45
-4261.7
-4261.71
-4261.54
-4261.17
-4260.6
-4259.84
-4258.88
-4257.71
-4256.35
-4254.77
-4252.98
-2515.43
-2633.74
-2933.83