/*--------------------------------*- C++ -*----------------------------------*\
  =========                 |
  \\      /  F ield         | OpenFOAM: The Open Source CFD Toolbox
   \\    /   O peration     | Website:  https://openfoam.org
    \\  /    A nd           | Version:  7
     \\/     M anipulation  |
\*---------------------------------------------------------------------------*/
FoamFile
{
    version     2.0;
    format      ascii;
    class       volVectorField;
    location    "1.1e-12/dielectric";
    object      EDext;
}
// * * * * * * * * * * * * * * * * * * * * * * * * * * * * * * * * * * * * * //

dimensions      [1 1 -3 0 0 -1 0];

internalField   nonuniform List<vector> 
5027
(
(122741 -1.72979e+07 -0)
(124336 -1.70506e+07 -0)
(125777 -1.68003e+07 -0)
(127051 -1.65474e+07 -0)
(128157 -1.6292e+07 -0)
(129092 -1.60346e+07 -0)
(129855 -1.57754e+07 -0)
(130446 -1.5515e+07 -0)
(130864 -1.52535e+07 -0)
(131113 -1.49913e+07 -0)
(131195 -1.47289e+07 -0)
(131112 -1.44664e+07 -0)
(130870 -1.42043e+07 -0)
(130474 -1.39428e+07 -0)
(129929 -1.36822e+07 -0)
(129242 -1.34229e+07 -0)
(128420 -1.31651e+07 -0)
(127470 -1.29091e+07 -0)
(126399 -1.26551e+07 -0)
(125215 -1.24034e+07 -0)
(123926 -1.21541e+07 -0)
(122541 -1.19076e+07 -0)
(121067 -1.16639e+07 -0)
(119511 -1.14232e+07 -0)
(117883 -1.11858e+07 -0)
(116189 -1.09516e+07 -0)
(114438 -1.0721e+07 -0)
(112636 -1.04938e+07 -0)
(110790 -1.02704e+07 -0)
(108907 -1.00506e+07 -0)
(106994 -9.83471e+06 -0)
(105056 -9.62263e+06 -0)
(103099 -9.41446e+06 -0)
(101129 -9.21023e+06 -0)
(99149.4 -9.00994e+06 -0)
(97166.3 -8.81362e+06 -0)
(95183.5 -8.62128e+06 -0)
(93205 -8.43289e+06 -0)
(91234.5 -8.24846e+06 -0)
(89275.2 -8.06797e+06 -0)
(87330.2 -7.89138e+06 -0)
(85402.3 -7.71866e+06 -0)
(83493.8 -7.54979e+06 -0)
(81607 -7.38471e+06 -0)
(79743.8 -7.22338e+06 -0)
(77906 -7.06576e+06 -0)
(76095.1 -6.91179e+06 -0)
(74312.3 -6.76141e+06 -0)
(72558.8 -6.61457e+06 -0)
(70835.5 -6.4712e+06 -0)
(69143.2 -6.33126e+06 -0)
(67482.6 -6.19466e+06 -0)
(65854 -6.06136e+06 -0)
(64257.9 -5.93128e+06 -0)
(62694.6 -5.80436e+06 -0)
(61164.1 -5.68053e+06 -0)
(59666.6 -5.55973e+06 -0)
(58201.9 -5.4419e+06 -0)
(56770.1 -5.32696e+06 -0)
(55370.9 -5.21485e+06 -0)
(54004 -5.10551e+06 -0)
(52669.3 -4.99887e+06 -0)
(51366.3 -4.89486e+06 -0)
(50094.7 -4.79343e+06 -0)
(48854 -4.69452e+06 -0)
(47643.8 -4.59805e+06 -0)
(46463.7 -4.50397e+06 -0)
(45313.1 -4.41222e+06 -0)
(44191.5 -4.32275e+06 -0)
(43098.4 -4.23549e+06 -0)
(42033.3 -4.15038e+06 -0)
(40995.5 -4.06738e+06 -0)
(39984.5 -3.98643e+06 -0)
(38999.7 -3.90747e+06 -0)
(38040.6 -3.83045e+06 -0)
(37106.6 -3.75533e+06 -0)
(36197.1 -3.68205e+06 -0)
(35311.6 -3.61057e+06 -0)
(34449.4 -3.54083e+06 -0)
(33610.1 -3.47279e+06 -0)
(32793 -3.40641e+06 -0)
(31997.6 -3.34164e+06 -0)
(31223.3 -3.27844e+06 -0)
(30469.7 -3.21677e+06 -0)
(29736.1 -3.15658e+06 -0)
(29022.1 -3.09784e+06 -0)
(28327.1 -3.04051e+06 -0)
(27650.7 -2.98455e+06 -0)
(26992.4 -2.92993e+06 -0)
(26351.6 -2.8766e+06 -0)
(25727.9 -2.82454e+06 -0)
(25120.8 -2.77371e+06 -0)
(24529.9 -2.72407e+06 -0)
(23954.7 -2.6756e+06 -0)
(23394.9 -2.62827e+06 -0)
(22849.9 -2.58204e+06 -0)
(22319.4 -2.53688e+06 -0)
(21803 -2.49277e+06 -0)
(21300.2 -2.44968e+06 -0)
(20810.7 -2.40759e+06 -0)
(20333.8 -2.36645e+06 -0)
(19869 -2.32626e+06 -0)
(19415.8 -2.28699e+06 -0)
(18983.1 -2.24861e+06 -0)
(368380 -1.73012e+07 -0)
(373170 -1.70537e+07 -0)
(377496 -1.68031e+07 -0)
(381322 -1.65497e+07 -0)
(384642 -1.6294e+07 -0)
(387448 -1.60363e+07 -0)
(389737 -1.57768e+07 -0)
(391508 -1.5516e+07 -0)
(392763 -1.52541e+07 -0)
(393507 -1.49917e+07 -0)
(393747 -1.47289e+07 -0)
(393496 -1.44661e+07 -0)
(392765 -1.42036e+07 -0)
(391571 -1.39418e+07 -0)
(389930 -1.3681e+07 -0)
(387863 -1.34214e+07 -0)
(385389 -1.31633e+07 -0)
(382530 -1.29071e+07 -0)
(379309 -1.26528e+07 -0)
(375750 -1.24009e+07 -0)
(371876 -1.21515e+07 -0)
(367711 -1.19047e+07 -0)
(363280 -1.16609e+07 -0)
(358607 -1.142e+07 -0)
(353714 -1.11824e+07 -0)
(348626 -1.09482e+07 -0)
(343364 -1.07174e+07 -0)
(337951 -1.04902e+07 -0)
(332407 -1.02666e+07 -0)
(326753 -1.00468e+07 -0)
(321006 -9.83085e+06 -0)
(315187 -9.61874e+06 -0)
(309311 -9.41053e+06 -0)
(303394 -9.20627e+06 -0)
(297452 -9.00597e+06 -0)
(291498 -8.80965e+06 -0)
(285546 -8.61731e+06 -0)
(279607 -8.42894e+06 -0)
(273692 -8.24453e+06 -0)
(267811 -8.06406e+06 -0)
(261974 -7.8875e+06 -0)
(256187 -7.71483e+06 -0)
(250460 -7.54599e+06 -0)
(244797 -7.38096e+06 -0)
(239206 -7.21968e+06 -0)
(233691 -7.06211e+06 -0)
(228257 -6.90819e+06 -0)
(222908 -6.75787e+06 -0)
(217646 -6.61109e+06 -0)
(212476 -6.46779e+06 -0)
(207398 -6.3279e+06 -0)
(202416 -6.19137e+06 -0)
(197530 -6.05813e+06 -0)
(192741 -5.92812e+06 -0)
(188051 -5.80127e+06 -0)
(183459 -5.67751e+06 -0)
(178967 -5.55677e+06 -0)
(174573 -5.439e+06 -0)
(170278 -5.32413e+06 -0)
(166080 -5.21209e+06 -0)
(161980 -5.10281e+06 -0)
(157976 -4.99623e+06 -0)
(154067 -4.89229e+06 -0)
(150253 -4.79092e+06 -0)
(146531 -4.69207e+06 -0)
(142902 -4.59566e+06 -0)
(139362 -4.50164e+06 -0)
(135910 -4.40995e+06 -0)
(132546 -4.32053e+06 -0)
(129267 -4.23333e+06 -0)
(126072 -4.14828e+06 -0)
(122960 -4.06533e+06 -0)
(119927 -3.98443e+06 -0)
(116973 -3.90553e+06 -0)
(114097 -3.82856e+06 -0)
(111295 -3.75349e+06 -0)
(108567 -3.68026e+06 -0)
(105911 -3.60882e+06 -0)
(103325 -3.53913e+06 -0)
(100808 -3.47114e+06 -0)
(98357.2 -3.4048e+06 -0)
(95971.5 -3.34007e+06 -0)
(93649.3 -3.27691e+06 -0)
(91388.9 -3.21528e+06 -0)
(89188.7 -3.15514e+06 -0)
(87047.2 -3.09644e+06 -0)
(84962.9 -3.03914e+06 -0)
(82934.1 -2.98322e+06 -0)
(80959.5 -2.92863e+06 -0)
(79037.6 -2.87534e+06 -0)
(77167 -2.82331e+06 -0)
(75346.2 -2.77251e+06 -0)
(73574 -2.72291e+06 -0)
(71848.9 -2.67447e+06 -0)
(70169.8 -2.62716e+06 -0)
(68535.3 -2.58096e+06 -0)
(66944.2 -2.53584e+06 -0)
(65395.4 -2.49176e+06 -0)
(63887.5 -2.44869e+06 -0)
(62419.3 -2.40662e+06 -0)
(60989.2 -2.36551e+06 -0)
(59594.7 -2.32535e+06 -0)
(58233 -2.2861e+06 -0)
(56939.6 -2.24775e+06 -0)
(614480 -1.7308e+07 -0)
(622487 -1.70598e+07 -0)
(629708 -1.68085e+07 -0)
(636098 -1.65545e+07 -0)
(641639 -1.62981e+07 -0)
(646322 -1.60397e+07 -0)
(650138 -1.57795e+07 -0)
(653087 -1.5518e+07 -0)
(655173 -1.52555e+07 -0)
(656403 -1.49923e+07 -0)
(656792 -1.47288e+07 -0)
(656358 -1.44654e+07 -0)
(655124 -1.42023e+07 -0)
(653114 -1.39399e+07 -0)
(650358 -1.36785e+07 -0)
(646889 -1.34183e+07 -0)
(642742 -1.31597e+07 -0)
(637952 -1.2903e+07 -0)
(632558 -1.26483e+07 -0)
(626599 -1.23959e+07 -0)
(620116 -1.21461e+07 -0)
(613148 -1.1899e+07 -0)
(605737 -1.16548e+07 -0)
(597921 -1.14136e+07 -0)
(589742 -1.11758e+07 -0)
(581236 -1.09413e+07 -0)
(572443 -1.07103e+07 -0)
(563397 -1.04829e+07 -0)
(554135 -1.02592e+07 -0)
(544690 -1.00392e+07 -0)
(535093 -9.82312e+06 -0)
(525374 -9.61092e+06 -0)
(515563 -9.40266e+06 -0)
(505685 -9.19835e+06 -0)
(495766 -8.99803e+06 -0)
(485829 -8.80171e+06 -0)
(475896 -8.60938e+06 -0)
(465985 -8.42103e+06 -0)
(456116 -8.23666e+06 -0)
(446304 -8.05624e+06 -0)
(436566 -7.87975e+06 -0)
(426914 -7.70714e+06 -0)
(417360 -7.53839e+06 -0)
(407916 -7.37345e+06 -0)
(398592 -7.21228e+06 -0)
(389396 -7.05481e+06 -0)
(380334 -6.901e+06 -0)
(371415 -6.7508e+06 -0)
(362643 -6.60413e+06 -0)
(354023 -6.46096e+06 -0)
(345558 -6.3212e+06 -0)
(337252 -6.18479e+06 -0)
(329108 -6.05168e+06 -0)
(321126 -5.9218e+06 -0)
(313308 -5.79508e+06 -0)
(305656 -5.67145e+06 -0)
(298168 -5.55085e+06 -0)
(290846 -5.43321e+06 -0)
(283687 -5.31847e+06 -0)
(276692 -5.20656e+06 -0)
(269860 -5.09741e+06 -0)
(263188 -4.99096e+06 -0)
(256674 -4.88714e+06 -0)
(250318 -4.7859e+06 -0)
(244117 -4.68717e+06 -0)
(238069 -4.59088e+06 -0)
(232171 -4.49698e+06 -0)
(226421 -4.40541e+06 -0)
(220815 -4.31611e+06 -0)
(215353 -4.22902e+06 -0)
(210029 -4.14408e+06 -0)
(204843 -4.06124e+06 -0)
(199791 -3.98044e+06 -0)
(194870 -3.90164e+06 -0)
(190078 -3.82478e+06 -0)
(185411 -3.74981e+06 -0)
(180866 -3.67667e+06 -0)
(176441 -3.60533e+06 -0)
(172133 -3.53573e+06 -0)
(167939 -3.46783e+06 -0)
(163856 -3.40158e+06 -0)
(159882 -3.33694e+06 -0)
(156013 -3.27386e+06 -0)
(152248 -3.21231e+06 -0)
(148583 -3.15224e+06 -0)
(145015 -3.09362e+06 -0)
(141543 -3.0364e+06 -0)
(138163 -2.98055e+06 -0)
(134874 -2.92604e+06 -0)
(131672 -2.87281e+06 -0)
(128556 -2.82085e+06 -0)
(125523 -2.77012e+06 -0)
(122571 -2.72058e+06 -0)
(119697 -2.6722e+06 -0)
(116900 -2.62496e+06 -0)
(114177 -2.57882e+06 -0)
(111527 -2.53375e+06 -0)
(108947 -2.48972e+06 -0)
(106435 -2.44671e+06 -0)
(103990 -2.40469e+06 -0)
(101608 -2.36364e+06 -0)
(99285.9 -2.32352e+06 -0)
(97012.4 -2.28431e+06 -0)
(94859.9 -2.24601e+06 -0)
(861351 -1.73181e+07 -0)
(872615 -1.70689e+07 -0)
(882750 -1.68167e+07 -0)
(891720 -1.65617e+07 -0)
(899496 -1.63043e+07 -0)
(906061 -1.60448e+07 -0)
(911407 -1.57836e+07 -0)
(915530 -1.5521e+07 -0)
(918437 -1.52575e+07 -0)
(920141 -1.49933e+07 -0)
(920661 -1.47288e+07 -0)
(920022 -1.44644e+07 -0)
(918257 -1.42003e+07 -0)
(915402 -1.3937e+07 -0)
(911500 -1.36747e+07 -0)
(906595 -1.34137e+07 -0)
(900737 -1.31544e+07 -0)
(893978 -1.28968e+07 -0)
(886371 -1.26415e+07 -0)
(877974 -1.23884e+07 -0)
(868840 -1.2138e+07 -0)
(859029 -1.18903e+07 -0)
(848597 -1.16456e+07 -0)
(837600 -1.1404e+07 -0)
(826095 -1.11657e+07 -0)
(814134 -1.09308e+07 -0)
(801772 -1.06995e+07 -0)
(789060 -1.04718e+07 -0)
(776046 -1.02479e+07 -0)
(762778 -1.00278e+07 -0)
(749300 -9.81151e+06 -0)
(735654 -9.59918e+06 -0)
(721881 -9.39082e+06 -0)
(708018 -9.18645e+06 -0)
(694099 -8.9861e+06 -0)
(680157 -8.78977e+06 -0)
(666222 -8.59745e+06 -0)
(652322 -8.40915e+06 -0)
(638481 -8.22484e+06 -0)
(624724 -8.0445e+06 -0)
(611071 -7.8681e+06 -0)
(597541 -7.69561e+06 -0)
(584151 -7.52699e+06 -0)
(570916 -7.36219e+06 -0)
(557850 -7.20116e+06 -0)
(544965 -7.04385e+06 -0)
(532270 -6.89021e+06 -0)
(519775 -6.74018e+06 -0)
(507487 -6.5937e+06 -0)
(495414 -6.4507e+06 -0)
(483559 -6.31113e+06 -0)
(471927 -6.17492e+06 -0)
(460523 -6.04201e+06 -0)
(449346 -5.91232e+06 -0)
(438401 -5.7858e+06 -0)
(427687 -5.66237e+06 -0)
(417205 -5.54197e+06 -0)
(406954 -5.42453e+06 -0)
(396933 -5.30998e+06 -0)
(387142 -5.19826e+06 -0)
(377578 -5.08931e+06 -0)
(368240 -4.98305e+06 -0)
(359124 -4.87943e+06 -0)
(350229 -4.77837e+06 -0)
(341551 -4.67982e+06 -0)
(333086 -4.58372e+06 -0)
(324832 -4.49e+06 -0)
(316786 -4.3986e+06 -0)
(308942 -4.30947e+06 -0)
(301298 -4.22255e+06 -0)
(293850 -4.13778e+06 -0)
(286593 -4.0551e+06 -0)
(279524 -3.97447e+06 -0)
(272639 -3.89582e+06 -0)
(265933 -3.81911e+06 -0)
(259403 -3.74428e+06 -0)
(253045 -3.6713e+06 -0)
(246854 -3.60009e+06 -0)
(240827 -3.53063e+06 -0)
(234959 -3.46287e+06 -0)
(229247 -3.39675e+06 -0)
(223687 -3.33224e+06 -0)
(218275 -3.26929e+06 -0)
(213007 -3.20786e+06 -0)
(207879 -3.14791e+06 -0)
(202888 -3.0894e+06 -0)
(198030 -3.0323e+06 -0)
(193302 -2.97656e+06 -0)
(188701 -2.92215e+06 -0)
(184222 -2.86903e+06 -0)
(179862 -2.81717e+06 -0)
(175619 -2.76653e+06 -0)
(171489 -2.71709e+06 -0)
(167469 -2.6688e+06 -0)
(163556 -2.62165e+06 -0)
(159747 -2.5756e+06 -0)
(156039 -2.53061e+06 -0)
(152430 -2.48667e+06 -0)
(148916 -2.44374e+06 -0)
(145496 -2.4018e+06 -0)
(142166 -2.36082e+06 -0)
(138921 -2.32077e+06 -0)
(135741 -2.28163e+06 -0)
(132709 -2.24338e+06 -0)
(1.10931e+06 -1.73316e+07 -0)
(1.12388e+06 -1.70812e+07 -0)
(1.13696e+06 -1.68276e+07 -0)
(1.14853e+06 -1.65713e+07 -0)
(1.15856e+06 -1.63125e+07 -0)
(1.16702e+06 -1.60516e+07 -0)
(1.1739e+06 -1.5789e+07 -0)
(1.17919e+06 -1.5525e+07 -0)
(1.18291e+06 -1.52601e+07 -0)
(1.18506e+06 -1.49945e+07 -0)
(1.18569e+06 -1.47287e+07 -0)
(1.18481e+06 -1.4463e+07 -0)
(1.18248e+06 -1.41977e+07 -0)
(1.17874e+06 -1.39331e+07 -0)
(1.17364e+06 -1.36696e+07 -0)
(1.16725e+06 -1.34075e+07 -0)
(1.15963e+06 -1.31471e+07 -0)
(1.15085e+06 -1.28886e+07 -0)
(1.14098e+06 -1.26322e+07 -0)
(1.13008e+06 -1.23783e+07 -0)
(1.11824e+06 -1.21271e+07 -0)
(1.10553e+06 -1.18787e+07 -0)
(1.09202e+06 -1.16333e+07 -0)
(1.07779e+06 -1.13911e+07 -0)
(1.0629e+06 -1.11523e+07 -0)
(1.04743e+06 -1.09169e+07 -0)
(1.03145e+06 -1.06851e+07 -0)
(1.01502e+06 -1.04571e+07 -0)
(998212 -1.02328e+07 -0)
(981076 -1.00124e+07 -0)
(963675 -9.79596e+06 -0)
(946062 -9.58347e+06 -0)
(928290 -9.37499e+06 -0)
(910405 -9.17054e+06 -0)
(892454 -8.97015e+06 -0)
(874477 -8.77381e+06 -0)
(856514 -8.58152e+06 -0)
(838598 -8.39327e+06 -0)
(820764 -8.20905e+06 -0)
(803040 -8.02882e+06 -0)
(785454 -7.85255e+06 -0)
(768029 -7.68021e+06 -0)
(750787 -7.51176e+06 -0)
(733747 -7.34715e+06 -0)
(716928 -7.18632e+06 -0)
(700343 -7.02923e+06 -0)
(684006 -6.87581e+06 -0)
(667928 -6.72601e+06 -0)
(652118 -6.57977e+06 -0)
(636586 -6.43703e+06 -0)
(621337 -6.29771e+06 -0)
(606376 -6.16176e+06 -0)
(591709 -6.02911e+06 -0)
(577337 -5.89968e+06 -0)
(563262 -5.77343e+06 -0)
(549487 -5.65026e+06 -0)
(536010 -5.53013e+06 -0)
(522831 -5.41295e+06 -0)
(509950 -5.29867e+06 -0)
(497365 -5.18721e+06 -0)
(485072 -5.07852e+06 -0)
(473070 -4.97251e+06 -0)
(461354 -4.86914e+06 -0)
(449922 -4.76834e+06 -0)
(438770 -4.67004e+06 -0)
(427893 -4.57418e+06 -0)
(417287 -4.48069e+06 -0)
(406947 -4.38953e+06 -0)
(396869 -4.30063e+06 -0)
(387048 -4.21394e+06 -0)
(377478 -4.12938e+06 -0)
(368155 -4.04692e+06 -0)
(359073 -3.9665e+06 -0)
(350227 -3.88806e+06 -0)
(341613 -3.81156e+06 -0)
(333224 -3.73693e+06 -0)
(325056 -3.66413e+06 -0)
(317103 -3.59312e+06 -0)
(309361 -3.52385e+06 -0)
(301823 -3.45626e+06 -0)
(294486 -3.39032e+06 -0)
(287344 -3.32598e+06 -0)
(280392 -3.26319e+06 -0)
(273625 -3.20193e+06 -0)
(267038 -3.14214e+06 -0)
(260628 -3.08378e+06 -0)
(254388 -3.02683e+06 -0)
(248315 -2.97124e+06 -0)
(242405 -2.91697e+06 -0)
(236652 -2.86399e+06 -0)
(231052 -2.81226e+06 -0)
(225602 -2.76175e+06 -0)
(220298 -2.71244e+06 -0)
(215134 -2.66428e+06 -0)
(210108 -2.61725e+06 -0)
(205216 -2.57131e+06 -0)
(200453 -2.52644e+06 -0)
(195817 -2.48261e+06 -0)
(191304 -2.43979e+06 -0)
(186910 -2.39795e+06 -0)
(182635 -2.35707e+06 -0)
(178474 -2.31713e+06 -0)
(174404 -2.27808e+06 -0)
(170459 -2.2399e+06 -0)
(1.3587e+06 -1.73487e+07 -0)
(1.37661e+06 -1.70966e+07 -0)
(1.39269e+06 -1.68414e+07 -0)
(1.4069e+06 -1.65833e+07 -0)
(1.4192e+06 -1.63228e+07 -0)
(1.42956e+06 -1.60601e+07 -0)
(1.43797e+06 -1.57957e+07 -0)
(1.44442e+06 -1.553e+07 -0)
(1.44893e+06 -1.52633e+07 -0)
(1.45152e+06 -1.4996e+07 -0)
(1.45221e+06 -1.47285e+07 -0)
(1.45106e+06 -1.44611e+07 -0)
(1.44811e+06 -1.41942e+07 -0)
(1.44343e+06 -1.39281e+07 -0)
(1.43708e+06 -1.36632e+07 -0)
(1.42914e+06 -1.33997e+07 -0)
(1.41969e+06 -1.31379e+07 -0)
(1.40882e+06 -1.28781e+07 -0)
(1.3966e+06 -1.26206e+07 -0)
(1.38314e+06 -1.23656e+07 -0)
(1.36852e+06 -1.21133e+07 -0)
(1.35283e+06 -1.1864e+07 -0)
(1.33617e+06 -1.16178e+07 -0)
(1.31863e+06 -1.13748e+07 -0)
(1.30029e+06 -1.11353e+07 -0)
(1.28125e+06 -1.08993e+07 -0)
(1.26158e+06 -1.06671e+07 -0)
(1.24137e+06 -1.04385e+07 -0)
(1.2207e+06 -1.02139e+07 -0)
(1.19964e+06 -9.99318e+06 -0)
(1.17826e+06 -9.77645e+06 -0)
(1.15663e+06 -9.56375e+06 -0)
(1.13481e+06 -9.35512e+06 -0)
(1.11286e+06 -9.15058e+06 -0)
(1.09083e+06 -8.95014e+06 -0)
(1.06878e+06 -8.7538e+06 -0)
(1.04676e+06 -8.56155e+06 -0)
(1.02479e+06 -8.37337e+06 -0)
(1.00294e+06 -8.18926e+06 -0)
(981219 -8.00917e+06 -0)
(959675 -7.83308e+06 -0)
(938333 -7.66093e+06 -0)
(917220 -7.4927e+06 -0)
(896359 -7.32832e+06 -0)
(875770 -7.16775e+06 -0)
(855473 -7.01092e+06 -0)
(835482 -6.85779e+06 -0)
(815811 -6.70829e+06 -0)
(796472 -6.56236e+06 -0)
(777475 -6.41992e+06 -0)
(758826 -6.28093e+06 -0)
(740532 -6.1453e+06 -0)
(722599 -6.01298e+06 -0)
(705029 -5.88388e+06 -0)
(687825 -5.75796e+06 -0)
(670987 -5.63513e+06 -0)
(654516 -5.51532e+06 -0)
(638412 -5.39848e+06 -0)
(622672 -5.28453e+06 -0)
(607294 -5.1734e+06 -0)
(592275 -5.06503e+06 -0)
(577612 -4.95935e+06 -0)
(563301 -4.85629e+06 -0)
(549336 -4.7558e+06 -0)
(535714 -4.65781e+06 -0)
(522429 -4.56225e+06 -0)
(509475 -4.46907e+06 -0)
(496847 -4.3782e+06 -0)
(484540 -4.28959e+06 -0)
(472546 -4.20317e+06 -0)
(460860 -4.1189e+06 -0)
(449475 -4.03671e+06 -0)
(438386 -3.95656e+06 -0)
(427585 -3.87838e+06 -0)
(417067 -3.80212e+06 -0)
(406825 -3.72774e+06 -0)
(396852 -3.65519e+06 -0)
(387142 -3.58442e+06 -0)
(377690 -3.51537e+06 -0)
(368488 -3.44801e+06 -0)
(359530 -3.38229e+06 -0)
(350811 -3.31816e+06 -0)
(342323 -3.25558e+06 -0)
(334063 -3.19452e+06 -0)
(326022 -3.13493e+06 -0)
(318196 -3.07677e+06 -0)
(310580 -3.02e+06 -0)
(303166 -2.96459e+06 -0)
(295951 -2.9105e+06 -0)
(288928 -2.85769e+06 -0)
(282093 -2.80613e+06 -0)
(275440 -2.75579e+06 -0)
(268965 -2.70663e+06 -0)
(262662 -2.65863e+06 -0)
(256527 -2.61175e+06 -0)
(250555 -2.56595e+06 -0)
(244741 -2.52123e+06 -0)
(239082 -2.47753e+06 -0)
(233572 -2.43485e+06 -0)
(228208 -2.39314e+06 -0)
(222989 -2.35239e+06 -0)
(217913 -2.31257e+06 -0)
(212969 -2.27366e+06 -0)
(208104 -2.23559e+06 -0)
(1.60984e+06 -1.73692e+07 -0)
(1.63116e+06 -1.71153e+07 -0)
(1.65028e+06 -1.6858e+07 -0)
(1.66717e+06 -1.65978e+07 -0)
(1.68177e+06 -1.63352e+07 -0)
(1.69405e+06 -1.60704e+07 -0)
(1.704e+06 -1.58038e+07 -0)
(1.7116e+06 -1.5536e+07 -0)
(1.71688e+06 -1.52671e+07 -0)
(1.71986e+06 -1.49978e+07 -0)
(1.72059e+06 -1.47282e+07 -0)
(1.7191e+06 -1.44588e+07 -0)
(1.71548e+06 -1.419e+07 -0)
(1.70978e+06 -1.3922e+07 -0)
(1.70211e+06 -1.36553e+07 -0)
(1.69254e+06 -1.33901e+07 -0)
(1.68118e+06 -1.31267e+07 -0)
(1.66812e+06 -1.28654e+07 -0)
(1.65347e+06 -1.26065e+07 -0)
(1.63735e+06 -1.23502e+07 -0)
(1.61986e+06 -1.20967e+07 -0)
(1.6011e+06 -1.18462e+07 -0)
(1.5812e+06 -1.1599e+07 -0)
(1.56026e+06 -1.13551e+07 -0)
(1.53839e+06 -1.11148e+07 -0)
(1.51568e+06 -1.08781e+07 -0)
(1.49225e+06 -1.06452e+07 -0)
(1.46818e+06 -1.04161e+07 -0)
(1.44358e+06 -1.0191e+07 -0)
(1.41852e+06 -9.96993e+06 -0)
(1.3931e+06 -9.7529e+06 -0)
(1.36739e+06 -9.53997e+06 -0)
(1.34146e+06 -9.33117e+06 -0)
(1.31539e+06 -9.12652e+06 -0)
(1.28924e+06 -8.92603e+06 -0)
(1.26307e+06 -8.72969e+06 -0)
(1.23693e+06 -8.5375e+06 -0)
(1.21089e+06 -8.34942e+06 -0)
(1.18497e+06 -8.16545e+06 -0)
(1.15922e+06 -7.98553e+06 -0)
(1.13369e+06 -7.80965e+06 -0)
(1.10841e+06 -7.63774e+06 -0)
(1.0834e+06 -7.46977e+06 -0)
(1.0587e+06 -7.30569e+06 -0)
(1.03432e+06 -7.14543e+06 -0)
(1.0103e+06 -6.98893e+06 -0)
(986638 -6.83615e+06 -0)
(963364 -6.687e+06 -0)
(940485 -6.54144e+06 -0)
(918014 -6.39938e+06 -0)
(895959 -6.26078e+06 -0)
(874328 -6.12554e+06 -0)
(853125 -5.99361e+06 -0)
(832355 -5.86492e+06 -0)
(812020 -5.73939e+06 -0)
(792121 -5.61696e+06 -0)
(772657 -5.49756e+06 -0)
(753628 -5.38112e+06 -0)
(735031 -5.26756e+06 -0)
(716864 -5.15683e+06 -0)
(699123 -5.04885e+06 -0)
(681803 -4.94356e+06 -0)
(664900 -4.84088e+06 -0)
(648407 -4.74077e+06 -0)
(632321 -4.64315e+06 -0)
(616633 -4.54795e+06 -0)
(601337 -4.45513e+06 -0)
(586427 -4.36462e+06 -0)
(571896 -4.27635e+06 -0)
(557736 -4.19027e+06 -0)
(543940 -4.10633e+06 -0)
(530500 -4.02447e+06 -0)
(517410 -3.94463e+06 -0)
(504661 -3.86676e+06 -0)
(492245 -3.79081e+06 -0)
(480155 -3.71673e+06 -0)
(468385 -3.64447e+06 -0)
(456925 -3.57398e+06 -0)
(445768 -3.50521e+06 -0)
(434907 -3.43812e+06 -0)
(424336 -3.37266e+06 -0)
(414045 -3.30879e+06 -0)
(404029 -3.24646e+06 -0)
(394280 -3.18564e+06 -0)
(384791 -3.12629e+06 -0)
(375556 -3.06836e+06 -0)
(366567 -3.01182e+06 -0)
(357819 -2.95662e+06 -0)
(349304 -2.90275e+06 -0)
(341017 -2.85014e+06 -0)
(332951 -2.79879e+06 -0)
(325101 -2.74864e+06 -0)
(317459 -2.69968e+06 -0)
(310022 -2.65186e+06 -0)
(302782 -2.60515e+06 -0)
(295735 -2.55954e+06 -0)
(288875 -2.51498e+06 -0)
(282197 -2.47145e+06 -0)
(275696 -2.42893e+06 -0)
(269366 -2.38738e+06 -0)
(263203 -2.34678e+06 -0)
(257210 -2.30711e+06 -0)
(251391 -2.26835e+06 -0)
(245646 -2.23045e+06 -0)
(1.86308e+06 -1.73935e+07 -0)
(1.88787e+06 -1.71371e+07 -0)
(1.91012e+06 -1.68775e+07 -0)
(1.92973e+06 -1.66148e+07 -0)
(1.94667e+06 -1.63497e+07 -0)
(1.96089e+06 -1.60823e+07 -0)
(1.97237e+06 -1.58133e+07 -0)
(1.98111e+06 -1.55429e+07 -0)
(1.98713e+06 -1.52715e+07 -0)
(1.99047e+06 -1.49997e+07 -0)
(1.99116e+06 -1.47277e+07 -0)
(1.98928e+06 -1.4456e+07 -0)
(1.98491e+06 -1.41848e+07 -0)
(1.97812e+06 -1.39147e+07 -0)
(1.96903e+06 -1.36458e+07 -0)
(1.95774e+06 -1.33786e+07 -0)
(1.94436e+06 -1.31134e+07 -0)
(1.92901e+06 -1.28503e+07 -0)
(1.91183e+06 -1.25897e+07 -0)
(1.89293e+06 -1.23319e+07 -0)
(1.87245e+06 -1.2077e+07 -0)
(1.85053e+06 -1.18253e+07 -0)
(1.82728e+06 -1.15768e+07 -0)
(1.80283e+06 -1.13319e+07 -0)
(1.77731e+06 -1.10906e+07 -0)
(1.75085e+06 -1.08531e+07 -0)
(1.72355e+06 -1.06195e+07 -0)
(1.69553e+06 -1.03898e+07 -0)
(1.66691e+06 -1.01642e+07 -0)
(1.63777e+06 -9.94262e+06 -0)
(1.60822e+06 -9.72525e+06 -0)
(1.57836e+06 -9.51205e+06 -0)
(1.54826e+06 -9.30307e+06 -0)
(1.518e+06 -9.09831e+06 -0)
(1.48767e+06 -8.89777e+06 -0)
(1.45732e+06 -8.70145e+06 -0)
(1.42703e+06 -8.50932e+06 -0)
(1.39684e+06 -8.32137e+06 -0)
(1.36682e+06 -8.13757e+06 -0)
(1.33702e+06 -7.95787e+06 -0)
(1.30746e+06 -7.78224e+06 -0)
(1.27821e+06 -7.61062e+06 -0)
(1.24928e+06 -7.44297e+06 -0)
(1.22071e+06 -7.27923e+06 -0)
(1.19252e+06 -7.11934e+06 -0)
(1.16475e+06 -6.96324e+06 -0)
(1.13741e+06 -6.81086e+06 -0)
(1.11052e+06 -6.66214e+06 -0)
(1.08409e+06 -6.51701e+06 -0)
(1.05814e+06 -6.3754e+06 -0)
(1.03267e+06 -6.23725e+06 -0)
(1.0077e+06 -6.10248e+06 -0)
(983220 -5.97101e+06 -0)
(959247 -5.84279e+06 -0)
(935780 -5.71774e+06 -0)
(912818 -5.59578e+06 -0)
(890363 -5.47685e+06 -0)
(868411 -5.36087e+06 -0)
(846961 -5.24778e+06 -0)
(826008 -5.13751e+06 -0)
(805549 -5.02999e+06 -0)
(785577 -4.92514e+06 -0)
(766088 -4.82292e+06 -0)
(747074 -4.72324e+06 -0)
(728528 -4.62606e+06 -0)
(710444 -4.53129e+06 -0)
(692814 -4.43889e+06 -0)
(675629 -4.34878e+06 -0)
(658881 -4.26092e+06 -0)
(642562 -4.17524e+06 -0)
(626664 -4.09169e+06 -0)
(611177 -4.01021e+06 -0)
(596092 -3.93074e+06 -0)
(581402 -3.85323e+06 -0)
(567097 -3.77764e+06 -0)
(553168 -3.70391e+06 -0)
(539606 -3.63198e+06 -0)
(526403 -3.56182e+06 -0)
(513550 -3.49338e+06 -0)
(501039 -3.4266e+06 -0)
(488860 -3.36145e+06 -0)
(477006 -3.29787e+06 -0)
(465467 -3.23584e+06 -0)
(454237 -3.17531e+06 -0)
(443307 -3.11623e+06 -0)
(432669 -3.05857e+06 -0)
(422315 -3.00229e+06 -0)
(412238 -2.94735e+06 -0)
(402431 -2.89372e+06 -0)
(392885 -2.84136e+06 -0)
(383594 -2.79024e+06 -0)
(374552 -2.74032e+06 -0)
(365751 -2.69157e+06 -0)
(357184 -2.64397e+06 -0)
(348845 -2.59748e+06 -0)
(340728 -2.55207e+06 -0)
(332827 -2.50771e+06 -0)
(325136 -2.46437e+06 -0)
(317648 -2.42203e+06 -0)
(310357 -2.38067e+06 -0)
(303256 -2.34024e+06 -0)
(296344 -2.30074e+06 -0)
(289634 -2.26215e+06 -0)
(283067 -2.22445e+06 -0)
(2.11878e+06 -1.74214e+07 -0)
(2.14714e+06 -1.71624e+07 -0)
(2.17257e+06 -1.68999e+07 -0)
(2.19497e+06 -1.66344e+07 -0)
(2.21428e+06 -1.63663e+07 -0)
(2.23045e+06 -1.60961e+07 -0)
(2.24347e+06 -1.5824e+07 -0)
(2.25334e+06 -1.55507e+07 -0)
(2.26007e+06 -1.52765e+07 -0)
(2.26371e+06 -1.50017e+07 -0)
(2.26432e+06 -1.47269e+07 -0)
(2.26197e+06 -1.44525e+07 -0)
(2.25675e+06 -1.41787e+07 -0)
(2.24877e+06 -1.3906e+07 -0)
(2.23815e+06 -1.36348e+07 -0)
(2.22502e+06 -1.33653e+07 -0)
(2.2095e+06 -1.30978e+07 -0)
(2.19174e+06 -1.28327e+07 -0)
(2.17189e+06 -1.25703e+07 -0)
(2.15009e+06 -1.23107e+07 -0)
(2.1265e+06 -1.20542e+07 -0)
(2.10127e+06 -1.18009e+07 -0)
(2.07454e+06 -1.15512e+07 -0)
(2.04647e+06 -1.13051e+07 -0)
(2.01719e+06 -1.10627e+07 -0)
(1.98684e+06 -1.08242e+07 -0)
(1.95557e+06 -1.05898e+07 -0)
(1.9235e+06 -1.03594e+07 -0)
(1.89074e+06 -1.01332e+07 -0)
(1.85743e+06 -9.91117e+06 -0)
(1.82367e+06 -9.69341e+06 -0)
(1.78956e+06 -9.47993e+06 -0)
(1.7552e+06 -9.27075e+06 -0)
(1.72069e+06 -9.06587e+06 -0)
(1.6861e+06 -8.8653e+06 -0)
(1.65152e+06 -8.66901e+06 -0)
(1.61701e+06 -8.47698e+06 -0)
(1.58264e+06 -8.28918e+06 -0)
(1.54847e+06 -8.10559e+06 -0)
(1.51456e+06 -7.92615e+06 -0)
(1.48094e+06 -7.75081e+06 -0)
(1.44768e+06 -7.57954e+06 -0)
(1.41479e+06 -7.41226e+06 -0)
(1.38233e+06 -7.24892e+06 -0)
(1.35032e+06 -7.08946e+06 -0)
(1.31878e+06 -6.93381e+06 -0)
(1.28774e+06 -6.78191e+06 -0)
(1.25721e+06 -6.63368e+06 -0)
(1.22722e+06 -6.48906e+06 -0)
(1.19777e+06 -6.34797e+06 -0)
(1.16889e+06 -6.21034e+06 -0)
(1.14056e+06 -6.0761e+06 -0)
(1.11281e+06 -5.94518e+06 -0)
(1.08563e+06 -5.81749e+06 -0)
(1.05903e+06 -5.69298e+06 -0)
(1.03301e+06 -5.57157e+06 -0)
(1.00756e+06 -5.45317e+06 -0)
(982693 -5.33774e+06 -0)
(958393 -5.22518e+06 -0)
(934659 -5.11544e+06 -0)
(911487 -5.00844e+06 -0)
(888869 -4.90412e+06 -0)
(866800 -4.80241e+06 -0)
(845271 -4.70323e+06 -0)
(824275 -4.60654e+06 -0)
(803802 -4.51227e+06 -0)
(783845 -4.42034e+06 -0)
(764393 -4.33071e+06 -0)
(745437 -4.24331e+06 -0)
(726968 -4.15808e+06 -0)
(708976 -4.07498e+06 -0)
(691450 -3.99393e+06 -0)
(674381 -3.91489e+06 -0)
(657759 -3.8378e+06 -0)
(641573 -3.76261e+06 -0)
(625813 -3.68927e+06 -0)
(610469 -3.61773e+06 -0)
(595532 -3.54795e+06 -0)
(580991 -3.47987e+06 -0)
(566837 -3.41346e+06 -0)
(553060 -3.34865e+06 -0)
(539650 -3.28542e+06 -0)
(526598 -3.22372e+06 -0)
(513894 -3.16351e+06 -0)
(501531 -3.10475e+06 -0)
(489497 -3.0474e+06 -0)
(477786 -2.99141e+06 -0)
(466388 -2.93677e+06 -0)
(455295 -2.88342e+06 -0)
(444498 -2.83133e+06 -0)
(433990 -2.78048e+06 -0)
(423762 -2.73082e+06 -0)
(413807 -2.68233e+06 -0)
(404118 -2.63498e+06 -0)
(394686 -2.58872e+06 -0)
(385506 -2.54354e+06 -0)
(376569 -2.49941e+06 -0)
(367870 -2.4563e+06 -0)
(359402 -2.41417e+06 -0)
(351157 -2.37301e+06 -0)
(343127 -2.33279e+06 -0)
(335301 -2.29348e+06 -0)
(327685 -2.25507e+06 -0)
(320320 -2.21757e+06 -0)
(2.37731e+06 -1.74532e+07 -0)
(2.40935e+06 -1.7191e+07 -0)
(2.43805e+06 -1.69254e+07 -0)
(2.4633e+06 -1.66566e+07 -0)
(2.48502e+06 -1.63852e+07 -0)
(2.50318e+06 -1.61116e+07 -0)
(2.51773e+06 -1.58362e+07 -0)
(2.5287e+06 -1.55594e+07 -0)
(2.5361e+06 -1.52819e+07 -0)
(2.53999e+06 -1.50039e+07 -0)
(2.54043e+06 -1.47259e+07 -0)
(2.53751e+06 -1.44483e+07 -0)
(2.53135e+06 -1.41715e+07 -0)
(2.52206e+06 -1.3896e+07 -0)
(2.50979e+06 -1.3622e+07 -0)
(2.49468e+06 -1.33499e+07 -0)
(2.47688e+06 -1.308e+07 -0)
(2.45656e+06 -1.28126e+07 -0)
(2.4339e+06 -1.2548e+07 -0)
(2.40905e+06 -1.22864e+07 -0)
(2.3822e+06 -1.2028e+07 -0)
(2.35351e+06 -1.17732e+07 -0)
(2.32316e+06 -1.15219e+07 -0)
(2.29131e+06 -1.12744e+07 -0)
(2.25813e+06 -1.10309e+07 -0)
(2.22377e+06 -1.07914e+07 -0)
(2.18839e+06 -1.0556e+07 -0)
(2.15213e+06 -1.03249e+07 -0)
(2.11514e+06 -1.0098e+07 -0)
(2.07754e+06 -9.87546e+06 -0)
(2.03946e+06 -9.65729e+06 -0)
(2.00101e+06 -9.44351e+06 -0)
(1.96231e+06 -9.23413e+06 -0)
(1.92345e+06 -9.02914e+06 -0)
(1.88453e+06 -8.82854e+06 -0)
(1.84564e+06 -8.6323e+06 -0)
(1.80685e+06 -8.4404e+06 -0)
(1.76823e+06 -8.2528e+06 -0)
(1.72986e+06 -8.06945e+06 -0)
(1.69179e+06 -7.89031e+06 -0)
(1.65407e+06 -7.71533e+06 -0)
(1.61676e+06 -7.54445e+06 -0)
(1.57989e+06 -7.37761e+06 -0)
(1.5435e+06 -7.21474e+06 -0)
(1.50763e+06 -7.05578e+06 -0)
(1.4723e+06 -6.90065e+06 -0)
(1.43754e+06 -6.74929e+06 -0)
(1.40337e+06 -6.60163e+06 -0)
(1.3698e+06 -6.45758e+06 -0)
(1.33686e+06 -6.31708e+06 -0)
(1.30454e+06 -6.18005e+06 -0)
(1.27286e+06 -6.04641e+06 -0)
(1.24183e+06 -5.9161e+06 -0)
(1.21144e+06 -5.78903e+06 -0)
(1.18171e+06 -5.66513e+06 -0)
(1.15263e+06 -5.54433e+06 -0)
(1.12419e+06 -5.42655e+06 -0)
(1.0964e+06 -5.31172e+06 -0)
(1.06926e+06 -5.19977e+06 -0)
(1.04275e+06 -5.09063e+06 -0)
(1.01687e+06 -4.98422e+06 -0)
(991613 -4.88049e+06 -0)
(966972 -4.77935e+06 -0)
(942936 -4.68075e+06 -0)
(919497 -4.58462e+06 -0)
(896645 -4.49089e+06 -0)
(874370 -4.39951e+06 -0)
(852661 -4.31041e+06 -0)
(831507 -4.22353e+06 -0)
(810897 -4.13881e+06 -0)
(790821 -4.0562e+06 -0)
(771267 -3.97564e+06 -0)
(752223 -3.89708e+06 -0)
(733679 -3.82046e+06 -0)
(715622 -3.74573e+06 -0)
(698041 -3.67284e+06 -0)
(680926 -3.60174e+06 -0)
(664264 -3.53238e+06 -0)
(648046 -3.46471e+06 -0)
(632258 -3.3987e+06 -0)
(616892 -3.33429e+06 -0)
(601936 -3.27144e+06 -0)
(587380 -3.21012e+06 -0)
(573212 -3.15027e+06 -0)
(559424 -3.09186e+06 -0)
(546004 -3.03485e+06 -0)
(532944 -2.97921e+06 -0)
(520233 -2.92489e+06 -0)
(507862 -2.87186e+06 -0)
(495822 -2.82008e+06 -0)
(484104 -2.76953e+06 -0)
(472699 -2.72017e+06 -0)
(461599 -2.67196e+06 -0)
(450794 -2.62488e+06 -0)
(440277 -2.5789e+06 -0)
(430040 -2.53398e+06 -0)
(420075 -2.4901e+06 -0)
(410374 -2.44723e+06 -0)
(400931 -2.40535e+06 -0)
(391739 -2.36442e+06 -0)
(382788 -2.32443e+06 -0)
(374064 -2.28534e+06 -0)
(365550 -2.24713e+06 -0)
(357356 -2.20981e+06 -0)
(2.63907e+06 -1.74889e+07 -0)
(2.67492e+06 -1.72232e+07 -0)
(2.70699e+06 -1.69539e+07 -0)
(2.73516e+06 -1.66815e+07 -0)
(2.75934e+06 -1.64063e+07 -0)
(2.77949e+06 -1.61288e+07 -0)
(2.79558e+06 -1.58496e+07 -0)
(2.80762e+06 -1.5569e+07 -0)
(2.81564e+06 -1.52877e+07 -0)
(2.81971e+06 -1.5006e+07 -0)
(2.81989e+06 -1.47244e+07 -0)
(2.8163e+06 -1.44433e+07 -0)
(2.80907e+06 -1.41631e+07 -0)
(2.79834e+06 -1.38843e+07 -0)
(2.78427e+06 -1.36072e+07 -0)
(2.76702e+06 -1.33322e+07 -0)
(2.74678e+06 -1.30596e+07 -0)
(2.72374e+06 -1.27896e+07 -0)
(2.69808e+06 -1.25226e+07 -0)
(2.67001e+06 -1.22588e+07 -0)
(2.63972e+06 -1.19985e+07 -0)
(2.60741e+06 -1.17417e+07 -0)
(2.57327e+06 -1.14888e+07 -0)
(2.53748e+06 -1.12399e+07 -0)
(2.50024e+06 -1.0995e+07 -0)
(2.46172e+06 -1.07544e+07 -0)
(2.42209e+06 -1.0518e+07 -0)
(2.38151e+06 -1.0286e+07 -0)
(2.34014e+06 -1.00585e+07 -0)
(2.29813e+06 -9.83538e+06 -0)
(2.25562e+06 -9.61678e+06 -0)
(2.21272e+06 -9.40269e+06 -0)
(2.16957e+06 -9.19311e+06 -0)
(2.12628e+06 -8.98802e+06 -0)
(2.08294e+06 -8.78742e+06 -0)
(2.03966e+06 -8.59126e+06 -0)
(1.99651e+06 -8.39952e+06 -0)
(1.95359e+06 -8.21215e+06 -0)
(1.91095e+06 -8.02911e+06 -0)
(1.86867e+06 -7.85033e+06 -0)
(1.8268e+06 -7.67576e+06 -0)
(1.7854e+06 -7.50533e+06 -0)
(1.74451e+06 -7.33899e+06 -0)
(1.70416e+06 -7.17665e+06 -0)
(1.66441e+06 -7.01826e+06 -0)
(1.62526e+06 -6.86372e+06 -0)
(1.58676e+06 -6.71298e+06 -0)
(1.54892e+06 -6.56595e+06 -0)
(1.51177e+06 -6.42255e+06 -0)
(1.47531e+06 -6.28272e+06 -0)
(1.43955e+06 -6.14636e+06 -0)
(1.40451e+06 -6.01341e+06 -0)
(1.37019e+06 -5.88378e+06 -0)
(1.3366e+06 -5.7574e+06 -0)
(1.30373e+06 -5.63419e+06 -0)
(1.27159e+06 -5.51407e+06 -0)
(1.24017e+06 -5.39698e+06 -0)
(1.20947e+06 -5.28283e+06 -0)
(1.17949e+06 -5.17156e+06 -0)
(1.15021e+06 -5.06308e+06 -0)
(1.12163e+06 -4.95734e+06 -0)
(1.09374e+06 -4.85425e+06 -0)
(1.06654e+06 -4.75376e+06 -0)
(1.04e+06 -4.65579e+06 -0)
(1.01413e+06 -4.56029e+06 -0)