/*--------------------------------*- C++ -*----------------------------------*\
  =========                 |
  \\      /  F ield         | OpenFOAM: The Open Source CFD Toolbox
   \\    /   O peration     | Website:  https://openfoam.org
    \\  /    A nd           | Version:  7
     \\/     M anipulation  |
\*---------------------------------------------------------------------------*/
FoamFile
{
    version     2.0;
    format      ascii;
    class       volScalarField;
    location    "1.2e-12";
    object      ne;
}
// * * * * * * * * * * * * * * * * * * * * * * * * * * * * * * * * * * * * * //

dimensions      [0 -3 0 0 0 0 0];

internalField   nonuniform List<scalar> 
15066
(
1.01508e+13
1.01508e+13
1.01509e+13
1.0151e+13
1.01511e+13
1.01513e+13
1.01515e+13
1.01517e+13
1.0152e+13
1.01523e+13
1.01526e+13
1.0153e+13
1.01534e+13
1.01538e+13
1.01542e+13
1.01547e+13
1.01553e+13
1.01559e+13
1.01565e+13
1.01571e+13
1.01578e+13
1.01585e+13
1.01593e+13
1.01601e+13
1.01609e+13
1.01618e+13
1.01628e+13
1.01637e+13
1.01647e+13
1.01658e+13
1.01669e+13
1.01681e+13
1.01693e+13
1.01706e+13
1.01719e+13
1.01733e+13
1.01747e+13
1.01762e+13
1.01778e+13
1.01794e+13
1.01811e+13
1.01828e+13
1.01846e+13
1.01865e+13
1.01885e+13
1.01906e+13
1.01927e+13
1.01949e+13
1.01972e+13
1.01996e+13
1.02021e+13
1.02048e+13
1.02075e+13
1.02103e+13
1.02133e+13
1.02164e+13
1.02196e+13
1.02229e+13
1.02264e+13
1.02301e+13
1.02339e+13
1.02379e+13
1.02421e+13
1.02465e+13
1.02511e+13
1.0256e+13
1.02611e+13
1.02664e+13
1.0272e+13
1.02779e+13
1.02842e+13
1.02907e+13
1.02977e+13
1.0305e+13
1.03127e+13
1.03209e+13
1.03296e+13
1.03387e+13
1.03485e+13
1.03587e+13
1.03696e+13
1.03812e+13
1.03933e+13
1.04062e+13
1.04196e+13
1.04337e+13
1.04484e+13
1.04637e+13
1.04795e+13
1.04957e+13
1.05123e+13
1.05292e+13
1.05463e+13
1.05634e+13
1.05804e+13
1.05968e+13
1.06114e+13
1.06213e+13
1.06242e+13
1.06135e+13
1.01506e+13
1.01506e+13
1.01507e+13
1.01508e+13
1.01509e+13
1.01511e+13
1.01513e+13
1.01515e+13
1.01517e+13
1.0152e+13
1.01524e+13
1.01527e+13
1.01531e+13
1.01535e+13
1.0154e+13
1.01545e+13
1.0155e+13
1.01556e+13
1.01562e+13
1.01569e+13
1.01575e+13
1.01583e+13
1.0159e+13
1.01598e+13
1.01607e+13
1.01616e+13
1.01625e+13
1.01635e+13
1.01645e+13
1.01655e+13
1.01667e+13
1.01678e+13
1.0169e+13
1.01703e+13
1.01716e+13
1.0173e+13
1.01744e+13
1.01759e+13
1.01774e+13
1.01791e+13
1.01807e+13
1.01825e+13
1.01843e+13
1.01862e+13
1.01881e+13
1.01902e+13
1.01923e+13
1.01945e+13
1.01968e+13
1.01992e+13
1.02017e+13
1.02043e+13
1.0207e+13
1.02098e+13
1.02128e+13
1.02158e+13
1.0219e+13
1.02224e+13
1.02259e+13
1.02295e+13
1.02333e+13
1.02373e+13
1.02414e+13
1.02458e+13
1.02504e+13
1.02551e+13
1.02602e+13
1.02654e+13
1.0271e+13
1.02768e+13
1.0283e+13
1.02894e+13
1.02962e+13
1.03034e+13
1.0311e+13
1.03191e+13
1.03275e+13
1.03365e+13
1.03459e+13
1.03559e+13
1.03665e+13
1.03776e+13
1.03894e+13
1.04017e+13
1.04146e+13
1.0428e+13
1.04419e+13
1.04564e+13
1.04712e+13
1.04864e+13
1.05019e+13
1.05175e+13
1.05332e+13
1.05488e+13
1.05641e+13
1.05786e+13
1.05911e+13
1.05993e+13
1.06018e+13
1.06016e+13
1.01504e+13
1.01504e+13
1.01505e+13
1.01506e+13
1.01507e+13
1.01508e+13
1.0151e+13
1.01513e+13
1.01515e+13
1.01518e+13
1.01521e+13
1.01525e+13
1.01529e+13
1.01533e+13
1.01538e+13
1.01543e+13
1.01548e+13
1.01554e+13
1.0156e+13
1.01566e+13
1.01573e+13
1.0158e+13
1.01588e+13
1.01596e+13
1.01604e+13
1.01613e+13
1.01622e+13
1.01632e+13
1.01642e+13
1.01653e+13
1.01664e+13
1.01676e+13
1.01688e+13
1.017e+13
1.01713e+13
1.01727e+13
1.01741e+13
1.01756e+13
1.01772e+13
1.01788e+13
1.01804e+13
1.01822e+13
1.0184e+13
1.01859e+13
1.01878e+13
1.01899e+13
1.0192e+13
1.01942e+13
1.01965e+13
1.01989e+13
1.02013e+13
1.02039e+13
1.02066e+13
1.02094e+13
1.02123e+13
1.02154e+13
1.02186e+13
1.02219e+13
1.02253e+13
1.02289e+13
1.02327e+13
1.02367e+13
1.02408e+13
1.02451e+13
1.02496e+13
1.02544e+13
1.02594e+13
1.02646e+13
1.02701e+13
1.02759e+13
1.02819e+13
1.02883e+13
1.0295e+13
1.03021e+13
1.03096e+13
1.03175e+13
1.03258e+13
1.03346e+13
1.03439e+13
1.03537e+13
1.0364e+13
1.03748e+13
1.03862e+13
1.03982e+13
1.04107e+13
1.04236e+13
1.04371e+13
1.04509e+13
1.04652e+13
1.04797e+13
1.04945e+13
1.05093e+13
1.05241e+13
1.05387e+13
1.05529e+13
1.05663e+13
1.05781e+13
1.05864e+13
1.05894e+13
1.05892e+13
1.01501e+13
1.01502e+13
1.01502e+13
1.01503e+13
1.01504e+13
1.01506e+13
1.01508e+13
1.0151e+13
1.01513e+13
1.01516e+13
1.01519e+13
1.01522e+13
1.01526e+13
1.01531e+13
1.01535e+13
1.0154e+13
1.01546e+13
1.01551e+13
1.01557e+13
1.01564e+13
1.0157e+13
1.01578e+13
1.01585e+13
1.01593e+13
1.01602e+13
1.0161e+13
1.0162e+13
1.01629e+13
1.01639e+13
1.0165e+13
1.01661e+13
1.01673e+13
1.01685e+13
1.01697e+13
1.0171e+13
1.01724e+13
1.01738e+13
1.01753e+13
1.01768e+13
1.01784e+13
1.01801e+13
1.01818e+13
1.01836e+13
1.01855e+13
1.01874e+13
1.01895e+13
1.01916e+13
1.01938e+13
1.0196e+13
1.01984e+13
1.02009e+13
1.02034e+13
1.02061e+13
1.02089e+13
1.02118e+13
1.02148e+13
1.0218e+13
1.02213e+13
1.02247e+13
1.02283e+13
1.0232e+13
1.02359e+13
1.024e+13
1.02443e+13
1.02488e+13
1.02535e+13
1.02584e+13
1.02636e+13
1.0269e+13
1.02747e+13
1.02806e+13
1.02869e+13
1.02935e+13
1.03005e+13
1.03078e+13
1.03156e+13
1.03237e+13
1.03323e+13
1.03413e+13
1.03509e+13
1.03609e+13
1.03714e+13
1.03824e+13
1.03939e+13
1.04059e+13
1.04183e+13
1.04312e+13
1.04444e+13
1.04579e+13
1.04716e+13
1.04855e+13
1.04993e+13
1.0513e+13
1.05265e+13
1.05393e+13
1.05513e+13
1.05618e+13
1.05698e+13
1.05739e+13
1.05748e+13
1.01498e+13
1.01499e+13
1.01499e+13
1.015e+13
1.01502e+13
1.01503e+13
1.01505e+13
1.01507e+13
1.0151e+13
1.01513e+13
1.01516e+13
1.0152e+13
1.01524e+13
1.01528e+13
1.01532e+13
1.01537e+13
1.01543e+13
1.01548e+13
1.01554e+13
1.01561e+13
1.01567e+13
1.01575e+13
1.01582e+13
1.0159e+13
1.01598e+13
1.01607e+13
1.01616e+13
1.01626e+13
1.01636e+13
1.01647e+13
1.01658e+13
1.01669e+13
1.01681e+13
1.01694e+13
1.01707e+13
1.0172e+13
1.01734e+13
1.01749e+13
1.01764e+13
1.0178e+13
1.01797e+13
1.01814e+13
1.01832e+13
1.01851e+13
1.0187e+13
1.0189e+13
1.01911e+13
1.01933e+13
1.01955e+13
1.01979e+13
1.02003e+13
1.02029e+13
1.02055e+13
1.02083e+13
1.02112e+13
1.02142e+13
1.02173e+13
1.02206e+13
1.0224e+13
1.02275e+13
1.02312e+13
1.02351e+13
1.02391e+13
1.02434e+13
1.02478e+13
1.02524e+13
1.02573e+13
1.02624e+13
1.02677e+13
1.02733e+13
1.02792e+13
1.02854e+13
1.02919e+13
1.02987e+13
1.03059e+13
1.03134e+13
1.03213e+13
1.03297e+13
1.03385e+13
1.03477e+13
1.03574e+13
1.03676e+13
1.03782e+13
1.03892e+13
1.04007e+13
1.04125e+13
1.04248e+13
1.04373e+13
1.04501e+13
1.0463e+13
1.04759e+13
1.04888e+13
1.05015e+13
1.05137e+13
1.05254e+13
1.05361e+13
1.05455e+13
1.05529e+13
1.05576e+13
1.05591e+13
1.01495e+13
1.01496e+13
1.01496e+13
1.01497e+13
1.01498e+13
1.015e+13
1.01502e+13
1.01504e+13
1.01507e+13
1.0151e+13
1.01513e+13
1.01516e+13
1.0152e+13
1.01525e+13
1.01529e+13
1.01534e+13
1.01539e+13
1.01545e+13
1.01551e+13
1.01557e+13
1.01564e+13
1.01571e+13
1.01579e+13
1.01587e+13
1.01595e+13
1.01604e+13
1.01613e+13
1.01622e+13
1.01632e+13
1.01643e+13
1.01654e+13
1.01665e+13
1.01677e+13
1.0169e+13
1.01703e+13
1.01716e+13
1.0173e+13
1.01745e+13
1.0176e+13
1.01776e+13
1.01792e+13
1.01809e+13
1.01827e+13
1.01846e+13
1.01865e+13
1.01885e+13
1.01906e+13
1.01927e+13
1.0195e+13
1.01973e+13
1.01997e+13
1.02023e+13
1.02049e+13
1.02077e+13
1.02105e+13
1.02135e+13
1.02166e+13
1.02198e+13
1.02232e+13
1.02267e+13
1.02303e+13
1.02342e+13
1.02382e+13
1.02423e+13
1.02467e+13
1.02513e+13
1.0256e+13
1.0261e+13
1.02663e+13
1.02718e+13
1.02776e+13
1.02836e+13
1.029e+13
1.02966e+13
1.03036e+13
1.0311e+13
1.03187e+13
1.03268e+13
1.03353e+13
1.03443e+13
1.03536e+13
1.03634e+13
1.03736e+13
1.03841e+13
1.03951e+13
1.04063e+13
1.04179e+13
1.04297e+13
1.04417e+13
1.04538e+13
1.04659e+13
1.04778e+13
1.04894e+13
1.05006e+13
1.05111e+13
1.05207e+13
1.05291e+13
1.05359e+13
1.05405e+13
1.05424e+13
1.01492e+13
1.01492e+13
1.01493e+13
1.01494e+13
1.01495e+13
1.01497e+13
1.01499e+13
1.01501e+13
1.01503e+13
1.01506e+13
1.01509e+13
1.01513e+13
1.01517e+13
1.01521e+13
1.01526e+13
1.01531e+13
1.01536e+13
1.01541e+13
1.01547e+13
1.01554e+13
1.0156e+13
1.01567e+13
1.01575e+13
1.01583e+13
1.01591e+13
1.016e+13
1.01609e+13
1.01618e+13
1.01628e+13
1.01639e+13
1.0165e+13
1.01661e+13
1.01673e+13
1.01685e+13
1.01698e+13
1.01712e+13
1.01726e+13
1.0174e+13
1.01755e+13
1.01771e+13
1.01787e+13
1.01804e+13
1.01822e+13
1.0184e+13
1.01859e+13
1.01879e+13
1.019e+13
1.01921e+13
1.01944e+13
1.01967e+13
1.01991e+13
1.02016e+13
1.02042e+13
1.02069e+13
1.02097e+13
1.02127e+13
1.02157e+13
1.02189e+13
1.02223e+13
1.02257e+13
1.02293e+13
1.02331e+13
1.02371e+13
1.02412e+13
1.02455e+13
1.025e+13
1.02547e+13
1.02596e+13
1.02647e+13
1.02701e+13
1.02758e+13
1.02817e+13
1.02879e+13
1.02944e+13
1.03012e+13
1.03084e+13
1.03159e+13
1.03237e+13
1.03319e+13
1.03405e+13
1.03495e+13
1.03589e+13
1.03686e+13
1.03787e+13
1.03891e+13
1.03998e+13
1.04107e+13
1.04218e+13
1.04331e+13
1.04443e+13
1.04555e+13
1.04665e+13
1.04771e+13
1.04873e+13
1.04968e+13
1.05055e+13
1.05129e+13
1.0519e+13
1.05234e+13
1.05259e+13
1.01488e+13
1.01489e+13
1.01489e+13
1.0149e+13
1.01491e+13
1.01493e+13
1.01495e+13
1.01497e+13
1.015e+13
1.01502e+13
1.01506e+13
1.01509e+13
1.01513e+13
1.01517e+13
1.01522e+13
1.01527e+13
1.01532e+13
1.01537e+13
1.01543e+13
1.0155e+13
1.01556e+13
1.01563e+13
1.01571e+13
1.01579e+13
1.01587e+13
1.01596e+13
1.01605e+13
1.01614e+13
1.01624e+13
1.01634e+13
1.01645e+13
1.01657e+13
1.01668e+13
1.01681e+13
1.01693e+13
1.01707e+13
1.01721e+13
1.01735e+13
1.0175e+13
1.01766e+13
1.01782e+13
1.01799e+13
1.01816e+13
1.01835e+13
1.01853e+13
1.01873e+13
1.01894e+13
1.01915e+13
1.01937e+13
1.0196e+13
1.01984e+13
1.02009e+13
1.02034e+13
1.02061e+13
1.02089e+13
1.02118e+13
1.02148e+13
1.0218e+13
1.02213e+13
1.02247e+13
1.02283e+13
1.0232e+13
1.02359e+13
1.02399e+13
1.02441e+13
1.02485e+13
1.02532e+13
1.0258e+13
1.0263e+13
1.02683e+13
1.02738e+13
1.02796e+13
1.02856e+13
1.0292e+13
1.02986e+13
1.03055e+13
1.03128e+13
1.03204e+13
1.03283e+13
1.03366e+13
1.03452e+13
1.03541e+13
1.03634e+13
1.0373e+13
1.03829e+13
1.03929e+13
1.04032e+13
1.04137e+13
1.04242e+13
1.04346e+13
1.0445e+13
1.04551e+13
1.04648e+13
1.04741e+13
1.04827e+13
1.04905e+13
1.04972e+13
1.05026e+13
1.05067e+13
1.05092e+13
1.01484e+13
1.01485e+13
1.01485e+13
1.01486e+13
1.01487e+13
1.01489e+13
1.01491e+13
1.01493e+13
1.01496e+13
1.01498e+13
1.01502e+13
1.01505e+13
1.01509e+13
1.01513e+13
1.01518e+13
1.01522e+13
1.01528e+13
1.01533e+13
1.01539e+13
1.01545e+13
1.01552e+13
1.01559e+13
1.01566e+13
1.01574e+13
1.01582e+13
1.01591e+13
1.016e+13
1.01609e+13
1.01619e+13
1.0163e+13
1.0164e+13
1.01652e+13
1.01663e+13
1.01675e+13
1.01688e+13
1.01701e+13
1.01715e+13
1.0173e+13
1.01744e+13
1.0176e+13
1.01776e+13
1.01793e+13
1.0181e+13
1.01828e+13
1.01847e+13
1.01866e+13
1.01887e+13
1.01908e+13
1.0193e+13
1.01952e+13
1.01976e+13
1.02001e+13
1.02026e+13
1.02053e+13
1.0208e+13
1.02109e+13
1.02139e+13
1.0217e+13
1.02202e+13
1.02236e+13
1.02271e+13
1.02308e+13
1.02346e+13
1.02385e+13
1.02427e+13
1.0247e+13
1.02515e+13
1.02563e+13
1.02612e+13
1.02663e+13
1.02717e+13
1.02773e+13
1.02832e+13
1.02894e+13
1.02958e+13
1.03025e+13
1.03095e+13
1.03168e+13
1.03245e+13
1.03324e+13
1.03406e+13
1.03492e+13
1.0358e+13
1.03671e+13
1.03764e+13
1.03859e+13
1.03956e+13
1.04054e+13
1.04151e+13
1.04249e+13
1.04344e+13
1.04437e+13
1.04526e+13
1.0461e+13
1.04688e+13
1.04758e+13
1.04819e+13
1.04869e+13
1.04906e+13
1.0493e+13
1.0148e+13
1.0148e+13
1.01481e+13
1.01482e+13
1.01483e+13
1.01485e+13
1.01487e+13
1.01489e+13
1.01491e+13
1.01494e+13
1.01497e+13
1.01501e+13
1.01505e+13
1.01509e+13
1.01513e+13
1.01518e+13
1.01523e+13
1.01529e+13
1.01535e+13
1.01541e+13
1.01547e+13
1.01554e+13
1.01562e+13
1.01569e+13
1.01578e+13
1.01586e+13
1.01595e+13
1.01604e+13
1.01614e+13
1.01624e+13
1.01635e+13
1.01646e+13
1.01658e+13
1.0167e+13
1.01683e+13
1.01696e+13
1.01709e+13
1.01724e+13
1.01738e+13
1.01754e+13
1.0177e+13
1.01786e+13
1.01804e+13
1.01821e+13
1.0184e+13
1.01859e+13
1.01879e+13
1.019e+13
1.01922e+13
1.01944e+13
1.01968e+13
1.01992e+13
1.02017e+13
1.02043e+13
1.02071e+13
1.02099e+13
1.02128e+13
1.02159e+13
1.02191e+13
1.02224e+13
1.02258e+13
1.02294e+13
1.02332e+13
1.02371e+13
1.02412e+13
1.02454e+13
1.02498e+13
1.02544e+13
1.02592e+13
1.02643e+13
1.02695e+13
1.0275e+13
1.02807e+13
1.02866e+13
1.02929e+13
1.02993e+13
1.03061e+13
1.03131e+13
1.03204e+13
1.0328e+13
1.03359e+13
1.03441e+13
1.03524e+13
1.0361e+13
1.03698e+13
1.03788e+13
1.03878e+13
1.0397e+13
1.04061e+13
1.04151e+13
1.04239e+13
1.04325e+13
1.04406e+13
1.04483e+13
1.04553e+13
1.04617e+13
1.04672e+13
1.04717e+13
1.04752e+13
1.04775e+13
1.01475e+13
1.01476e+13
1.01476e+13
1.01477e+13
1.01479e+13
1.0148e+13
1.01482e+13
1.01484e+13
1.01487e+13
1.01489e+13
1.01493e+13
1.01496e+13
1.015e+13
1.01504e+13
1.01508e+13
1.01513e+13
1.01518e+13
1.01524e+13
1.0153e+13
1.01536e+13
1.01542e+13
1.01549e+13
1.01557e+13
1.01564e+13
1.01572e+13
1.01581e+13
1.0159e+13
1.01599e+13
1.01609e+13
1.01619e+13
1.0163e+13
1.01641e+13
1.01652e+13
1.01664e+13
1.01677e+13
1.0169e+13
1.01703e+13
1.01717e+13
1.01732e+13
1.01747e+13
1.01763e+13
1.01779e+13
1.01796e+13
1.01814e+13
1.01833e+13
1.01852e+13
1.01872e+13
1.01892e+13
1.01914e+13
1.01936e+13
1.01959e+13
1.01983e+13
1.02008e+13
1.02033e+13
1.0206e+13
1.02088e+13
1.02117e+13
1.02147e+13
1.02179e+13
1.02211e+13
1.02245e+13
1.0228e+13
1.02317e+13
1.02355e+13
1.02395e+13
1.02437e+13
1.0248e+13
1.02525e+13
1.02572e+13
1.02621e+13
1.02672e+13
1.02725e+13
1.0278e+13
1.02838e+13
1.02898e+13
1.0296e+13
1.03025e+13
1.03093e+13
1.03163e+13
1.03236e+13
1.03311e+13
1.03388e+13
1.03467e+13
1.03549e+13
1.03631e+13
1.03715e+13
1.038e+13
1.03885e+13
1.0397e+13
1.04054e+13
1.04135e+13
1.04214e+13
1.04289e+13
1.04359e+13
1.04423e+13
1.0448e+13
1.0453e+13
1.04572e+13
1.04604e+13
1.04626e+13
1.01471e+13
1.01471e+13
1.01472e+13
1.01473e+13
1.01474e+13
1.01475e+13
1.01477e+13
1.01479e+13
1.01482e+13
1.01485e+13
1.01488e+13
1.01491e+13
1.01495e+13
1.01499e+13
1.01503e+13
1.01508e+13
1.01513e+13
1.01519e+13
1.01525e+13
1.01531e+13
1.01537e+13
1.01544e+13
1.01551e+13
1.01559e+13
1.01567e+13
1.01575e+13
1.01584e+13
1.01593e+13
1.01603e+13
1.01613e+13
1.01624e+13
1.01635e+13
1.01646e+13
1.01658e+13
1.0167e+13
1.01683e+13
1.01697e+13
1.01711e+13
1.01725e+13
1.0174e+13
1.01756e+13
1.01772e+13
1.01789e+13
1.01807e+13
1.01825e+13
1.01844e+13
1.01863e+13
1.01884e+13
1.01905e+13
1.01927e+13
1.01949e+13
1.01973e+13
1.01998e+13
1.02023e+13
1.02049e+13
1.02077e+13
1.02105e+13
1.02135e+13
1.02166e+13
1.02198e+13
1.02231e+13
1.02266e+13
1.02302e+13
1.02339e+13
1.02378e+13
1.02419e+13
1.02461e+13
1.02505e+13
1.0255e+13
1.02598e+13
1.02647e+13
1.02699e+13
1.02752e+13
1.02808e+13
1.02866e+13
1.02926e+13
1.02989e+13
1.03053e+13
1.0312e+13
1.0319e+13
1.03261e+13
1.03334e+13
1.03409e+13
1.03486e+13
1.03564e+13
1.03643e+13
1.03722e+13
1.03802e+13
1.0388e+13
1.03958e+13
1.04033e+13
1.04106e+13
1.04174e+13
1.04238e+13
1.04297e+13
1.04349e+13
1.04395e+13
1.04433e+13
1.04462e+13
1.04484e+13
1.01466e+13
1.01466e+13
1.01466e+13
1.01467e+13
1.01469e+13
1.0147e+13
1.01472e+13
1.01474e+13
1.01477e+13
1.01479e+13
1.01482e+13
1.01486e+13
1.0149e+13
1.01494e+13
1.01498e+13
1.01503e+13
1.01508e+13
1.01513e+13
1.01519e+13
1.01525e+13
1.01532e+13
1.01538e+13
1.01546e+13
1.01553e+13
1.01561e+13
1.0157e+13
1.01578e+13
1.01587e+13
1.01597e+13
1.01607e+13
1.01617e+13
1.01628e+13
1.0164e+13
1.01651e+13
1.01664e+13
1.01676e+13
1.0169e+13
1.01704e+13
1.01718e+13
1.01733e+13
1.01748e+13
1.01764e+13
1.01781e+13
1.01798e+13
1.01816e+13
1.01835e+13
1.01854e+13
1.01875e+13
1.01895e+13
1.01917e+13
1.01939e+13
1.01963e+13
1.01987e+13
1.02012e+13
1.02038e+13
1.02065e+13
1.02093e+13
1.02122e+13
1.02152e+13
1.02184e+13
1.02216e+13
1.0225e+13
1.02286e+13
1.02322e+13
1.0236e+13
1.024e+13
1.02441e+13
1.02484e+13
1.02528e+13
1.02574e+13
1.02622e+13
1.02672e+13
1.02724e+13
1.02777e+13
1.02833e+13
1.02891e+13
1.02951e+13
1.03013e+13
1.03077e+13
1.03143e+13
1.03211e+13
1.0328e+13
1.03351e+13
1.03423e+13
1.03497e+13
1.03571e+13
1.03645e+13
1.03719e+13
1.03792e+13
1.03864e+13
1.03934e+13
1.04e+13
1.04064e+13
1.04122e+13
1.04176e+13
1.04224e+13
1.04266e+13
1.043e+13
1.04327e+13
1.04347e+13
1.0146e+13
1.01461e+13
1.01461e+13
1.01462e+13
1.01463e+13
1.01465e+13
1.01467e+13
1.01469e+13
1.01471e+13
1.01474e+13
1.01477e+13
1.0148e+13
1.01484e+13
1.01488e+13
1.01493e+13
1.01497e+13
1.01502e+13
1.01508e+13
1.01513e+13
1.01519e+13
1.01526e+13
1.01533e+13
1.0154e+13
1.01547e+13
1.01555e+13
1.01563e+13
1.01572e+13
1.01581e+13
1.01591e+13
1.016e+13
1.01611e+13
1.01622e+13
1.01633e+13
1.01645e+13
1.01657e+13
1.01669e+13
1.01682e+13
1.01696e+13
1.0171e+13
1.01725e+13
1.0174e+13
1.01756e+13
1.01773e+13
1.0179e+13
1.01808e+13
1.01826e+13
1.01845e+13
1.01865e+13
1.01886e+13
1.01907e+13
1.01929e+13
1.01952e+13
1.01976e+13
1.02e+13
1.02026e+13
1.02053e+13
1.0208e+13
1.02109e+13
1.02138e+13
1.02169e+13
1.02201e+13
1.02234e+13
1.02269e+13
1.02304e+13
1.02342e+13
1.0238e+13
1.0242e+13
1.02462e+13
1.02505e+13
1.0255e+13
1.02596e+13
1.02644e+13
1.02694e+13
1.02746e+13
1.028e+13
1.02855e+13
1.02912e+13
1.02972e+13
1.03033e+13
1.03095e+13
1.0316e+13
1.03226e+13
1.03293e+13
1.03361e+13
1.0343e+13
1.03499e+13
1.03568e+13
1.03637e+13
1.03705e+13
1.03772e+13
1.03836e+13
1.03898e+13
1.03956e+13
1.0401e+13
1.0406e+13
1.04104e+13
1.04142e+13
1.04174e+13
1.042e+13
1.04218e+13
1.01455e+13
1.01455e+13
1.01455e+13
1.01456e+13
1.01458e+13
1.01459e+13
1.01461e+13
1.01463e+13
1.01465e+13
1.01468e+13
1.01471e+13
1.01475e+13
1.01478e+13
1.01482e+13
1.01487e+13
1.01491e+13
1.01496e+13
1.01502e+13
1.01507e+13
1.01513e+13
1.0152e+13
1.01526e+13
1.01533e+13
1.01541e+13
1.01549e+13
1.01557e+13
1.01566e+13
1.01574e+13
1.01584e+13
1.01594e+13
1.01604e+13
1.01615e+13
1.01626e+13
1.01637e+13
1.01649e+13
1.01662e+13
1.01675e+13
1.01688e+13
1.01702e+13
1.01717e+13
1.01732e+13
1.01748e+13
1.01764e+13
1.01781e+13
1.01799e+13
1.01817e+13
1.01836e+13
1.01855e+13
1.01875e+13
1.01896e+13
1.01918e+13
1.01941e+13
1.01964e+13
1.01988e+13
1.02014e+13
1.0204e+13
1.02067e+13
1.02095e+13
1.02124e+13
1.02154e+13
1.02185e+13
1.02218e+13
1.02251e+13
1.02286e+13
1.02322e+13
1.0236e+13
1.02399e+13
1.02439e+13
1.02481e+13
1.02524e+13
1.02569e+13
1.02616e+13
1.02664e+13
1.02714e+13
1.02765e+13
1.02819e+13
1.02873e+13
1.0293e+13
1.02988e+13
1.03048e+13
1.03109e+13
1.03171e+13
1.03234e+13
1.03299e+13
1.03363e+13
1.03428e+13
1.03493e+13
1.03557e+13
1.0362e+13
1.03682e+13
1.03742e+13
1.03799e+13
1.03853e+13
1.03903e+13
1.03948e+13
1.03989e+13
1.04024e+13
1.04054e+13
1.04078e+13
1.04096e+13
1.01449e+13
1.01449e+13
1.0145e+13
1.01451e+13
1.01452e+13
1.01453e+13
1.01455e+13
1.01457e+13
1.0146e+13
1.01462e+13
1.01465e+13
1.01469e+13
1.01472e+13
1.01476e+13
1.01481e+13
1.01485e+13
1.0149e+13
1.01495e+13
1.01501e+13
1.01507e+13
1.01513e+13
1.0152e+13
1.01527e+13
1.01534e+13
1.01542e+13
1.0155e+13
1.01559e+13
1.01568e+13
1.01577e+13
1.01587e+13
1.01597e+13
1.01607e+13
1.01618e+13
1.0163e+13
1.01642e+13
1.01654e+13
1.01667e+13
1.0168e+13
1.01694e+13
1.01709e+13
1.01724e+13
1.01739e+13
1.01755e+13
1.01772e+13
1.01789e+13
1.01807e+13
1.01826e+13
1.01845e+13
1.01865e+13
1.01885e+13
1.01907e+13
1.01929e+13
1.01952e+13
1.01976e+13
1.02001e+13
1.02026e+13
1.02053e+13
1.0208e+13
1.02109e+13
1.02138e+13
1.02169e+13
1.022e+13
1.02233e+13
1.02267e+13
1.02302e+13
1.02339e+13
1.02377e+13
1.02416e+13
1.02456e+13
1.02498e+13
1.02542e+13
1.02587e+13
1.02633e+13
1.02681e+13
1.02731e+13
1.02782e+13
1.02834e+13
1.02888e+13
1.02943e+13
1.03e+13
1.03058e+13
1.03117e+13
1.03176e+13
1.03237e+13
1.03297e+13
1.03358e+13
1.03419e+13
1.03479e+13
1.03538e+13
1.03595e+13
1.0365e+13
1.03703e+13
1.03753e+13
1.03799e+13
1.03841e+13
1.03879e+13
1.03912e+13
1.0394e+13
1.03962e+13
1.03979e+13
1.01443e+13
1.01443e+13
1.01443e+13
1.01444e+13
1.01446e+13
1.01447e+13
1.01449e+13
1.01451e+13
1.01453e+13
1.01456e+13
1.01459e+13
1.01462e+13
1.01466e+13
1.0147e+13
1.01474e+13
1.01479e+13
1.01484e+13
1.01489e+13
1.01494e+13
1.015e+13
1.01507e+13
1.01513e+13
1.0152e+13
1.01527e+13
1.01535e+13
1.01543e+13
1.01552e+13
1.0156e+13
1.0157e+13
1.01579e+13
1.01589e+13
1.016e+13
1.01611e+13
1.01622e+13
1.01634e+13
1.01646e+13
1.01659e+13
1.01672e+13
1.01686e+13
1.017e+13
1.01715e+13
1.0173e+13
1.01746e+13
1.01762e+13
1.01779e+13
1.01797e+13
1.01815e+13
1.01834e+13
1.01854e+13
1.01874e+13
1.01895e+13
1.01917e+13
1.0194e+13
1.01963e+13
1.01987e+13
1.02012e+13
1.02038e+13
1.02065e+13
1.02093e+13
1.02122e+13
1.02152e+13
1.02183e+13
1.02215e+13
1.02248e+13
1.02282e+13
1.02317e+13
1.02354e+13
1.02392e+13
1.02431e+13
1.02472e+13
1.02514e+13
1.02557e+13
1.02602e+13
1.02648e+13
1.02695e+13
1.02744e+13
1.02794e+13
1.02846e+13
1.02898e+13
1.02952e+13
1.03007e+13
1.03063e+13
1.03119e+13
1.03176e+13
1.03233e+13
1.0329e+13
1.03346e+13
1.03402e+13
1.03457e+13
1.03511e+13
1.03562e+13
1.03611e+13
1.03657e+13
1.037e+13
1.03739e+13
1.03774e+13
1.03804e+13
1.0383e+13
1.03851e+13
1.03867e+13
1.01436e+13
1.01437e+13
1.01437e+13
1.01438e+13
1.01439e+13
1.01441e+13
1.01442e+13
1.01444e+13
1.01447e+13
1.0145e+13
1.01452e+13
1.01456e+13
1.01459e+13
1.01463e+13
1.01467e+13
1.01472e+13
1.01477e+13
1.01482e+13
1.01488e+13
1.01493e+13
1.015e+13
1.01506e+13
1.01513e+13
1.0152e+13
1.01528e+13
1.01536e+13
1.01544e+13
1.01553e+13
1.01562e+13
1.01572e+13
1.01581e+13
1.01592e+13
1.01603e+13
1.01614e+13
1.01625e+13
1.01637e+13
1.0165e+13
1.01663e+13
1.01677e+13
1.01691e+13
1.01705e+13
1.0172e+13
1.01736e+13
1.01752e+13
1.01769e+13
1.01786e+13
1.01804e+13
1.01823e+13
1.01842e+13
1.01862e+13
1.01883e+13
1.01905e+13
1.01927e+13
1.0195e+13
1.01973e+13
1.01998e+13
1.02023e+13
1.0205e+13
1.02077e+13
1.02105e+13
1.02134e+13
1.02164e+13
1.02196e+13
1.02228e+13
1.02261e+13
1.02296e+13
1.02331e+13
1.02368e+13
1.02406e+13
1.02445e+13
1.02486e+13
1.02527e+13
1.0257e+13
1.02614e+13
1.0266e+13
1.02707e+13
1.02755e+13
1.02804e+13
1.02854e+13
1.02905e+13
1.02957e+13
1.03009e+13
1.03062e+13
1.03116e+13
1.03169e+13
1.03222e+13
1.03275e+13
1.03328e+13
1.03379e+13
1.03429e+13
1.03476e+13
1.03522e+13
1.03565e+13
1.03604e+13
1.03641e+13
1.03673e+13
1.03702e+13
1.03726e+13
1.03746e+13
1.03761e+13
1.0143e+13
1.0143e+13
1.0143e+13
1.01431e+13
1.01433e+13
1.01434e+13
1.01436e+13
1.01438e+13
1.0144e+13
1.01443e+13
1.01446e+13
1.01449e+13
1.01453e+13
1.01456e+13
1.01461e+13
1.01465e+13
1.0147e+13
1.01475e+13
1.01481e+13
1.01486e+13
1.01492e+13
1.01499e+13
1.01506e+13
1.01513e+13
1.0152e+13
1.01528e+13
1.01537e+13
1.01545e+13
1.01554e+13
1.01564e+13
1.01573e+13
1.01584e+13
1.01594e+13
1.01605e+13
1.01617e+13
1.01629e+13
1.01641e+13
1.01654e+13
1.01667e+13
1.01681e+13
1.01696e+13
1.01711e+13
1.01726e+13
1.01742e+13
1.01758e+13
1.01776e+13
1.01793e+13
1.01812e+13
1.01831e+13
1.0185e+13
1.01871e+13
1.01892e+13
1.01913e+13
1.01936e+13
1.01959e+13
1.01983e+13
1.02008e+13
1.02034e+13
1.0206e+13
1.02088e+13
1.02116e+13
1.02146e+13
1.02176e+13
1.02207e+13
1.0224e+13
1.02273e+13
1.02308e+13
1.02343e+13
1.0238e+13
1.02418e+13
1.02457e+13
1.02497e+13
1.02538e+13
1.02581e+13
1.02624e+13
1.02669e+13
1.02715e+13
1.02761e+13
1.02809e+13
1.02858e+13
1.02907e+13
1.02956e+13
1.03007e+13
1.03057e+13
1.03107e+13
1.03157e+13
1.03206e+13
1.03255e+13
1.03303e+13
1.03349e+13
1.03394e+13
1.03436e+13
1.03476e+13
1.03513e+13
1.03547e+13
1.03577e+13
1.03604e+13
1.03627e+13
1.03645e+13
1.0366e+13
1.01423e+13
1.01423e+13
1.01424e+13
1.01424e+13
1.01426e+13
1.01427e+13
1.01429e+13
1.01431e+13
1.01433e+13
1.01436e+13
1.01439e+13
1.01442e+13
1.01445e+13
1.01449e+13
1.01453e+13
1.01458e+13
1.01463e+13
1.01468e+13
1.01473e+13
1.01479e+13
1.01485e+13
1.01491e+13
1.01498e+13
1.01505e+13
1.01513e+13
1.0152e+13
1.01529e+13
1.01537e+13
1.01546e+13
1.01555e+13
1.01565e+13
1.01575e+13
1.01586e+13
1.01597e+13
1.01608e+13
1.0162e+13
1.01632e+13
1.01645e+13
1.01658e+13
1.01672e+13
1.01686e+13
1.017e+13
1.01716e+13
1.01731e+13
1.01748e+13
1.01764e+13
1.01782e+13
1.018e+13
1.01819e+13
1.01838e+13
1.01858e+13
1.01878e+13
1.019e+13
1.01922e+13
1.01945e+13
1.01968e+13
1.01993e+13
1.02018e+13
1.02044e+13
1.0207e+13
1.02098e+13
1.02127e+13
1.02156e+13
1.02187e+13
1.02218e+13
1.02251e+13
1.02284e+13
1.02318e+13
1.02354e+13
1.0239e+13
1.02428e+13
1.02467e+13
1.02506e+13
1.02547e+13
1.02589e+13
1.02631e+13
1.02675e+13
1.0272e+13
1.02765e+13
1.02811e+13
1.02857e+13
1.02904e+13
1.02952e+13
1.02999e+13
1.03046e+13
1.03093e+13
1.03139e+13
1.03185e+13
1.03229e+13
1.03273e+13
1.03314e+13
1.03354e+13
1.03391e+13
1.03425e+13
1.03457e+13
1.03485e+13
1.0351e+13
1.03532e+13
1.03549e+13
1.03563e+13
1.01416e+13
1.01416e+13
1.01417e+13
1.01417e+13
1.01419e+13
1.0142e+13
1.01422e+13
1.01424e+13
1.01426e+13
1.01429e+13
1.01431e+13
1.01435e+13
1.01438e+13
1.01442e+13
1.01446e+13
1.0145e+13
1.01455e+13
1.0146e+13
1.01466e+13
1.01471e+13
1.01477e+13
1.01484e+13
1.0149e+13
1.01497e+13
1.01505e+13
1.01512e+13
1.0152e+13
1.01529e+13
1.01538e+13
1.01547e+13
1.01556e+13
1.01566e+13
1.01577e+13
1.01588e+13
1.01599e+13
1.0161e+13
1.01623e+13
1.01635e+13
1.01648e+13
1.01662e+13
1.01676e+13
1.0169e+13
1.01705e+13
1.0172e+13
1.01736e+13
1.01753e+13
1.0177e+13
1.01788e+13
1.01806e+13
1.01825e+13
1.01845e+13
1.01865e+13
1.01886e+13
1.01907e+13
1.0193e+13
1.01953e+13
1.01977e+13
1.02001e+13
1.02026e+13
1.02053e+13
1.0208e+13
1.02107e+13
1.02136e+13
1.02166e+13
1.02196e+13
1.02228e+13
1.0226e+13
1.02293e+13
1.02328e+13
1.02363e+13
1.02399e+13
1.02436e+13
1.02474e+13
1.02513e+13
1.02553e+13
1.02594e+13
1.02636e+13
1.02678e+13
1.02721e+13
1.02765e+13
1.02809e+13
1.02853e+13
1.02898e+13
1.02942e+13
1.02986e+13
1.0303e+13
1.03074e+13
1.03116e+13
1.03158e+13
1.03199e+13
1.03237e+13
1.03274e+13
1.03309e+13
1.03341e+13
1.03371e+13
1.03397e+13
1.03421e+13
1.03441e+13
1.03458e+13
1.03471e+13
1.01408e+13
1.01409e+13
1.01409e+13
1.0141e+13
1.01411e+13
1.01413e+13
1.01414e+13
1.01416e+13
1.01419e+13
1.01421e+13
1.01424e+13
1.01427e+13
1.01431e+13
1.01434e+13
1.01438e+13
1.01443e+13
1.01448e+13
1.01452e+13
1.01458e+13
1.01463e+13
1.01469e+13
1.01476e+13
1.01482e+13
1.01489e+13
1.01496e+13
1.01504e+13
1.01512e+13
1.0152e+13
1.01529e+13
1.01538e+13
1.01548e+13
1.01557e+13
1.01568e+13
1.01578e+13
1.01589e+13
1.01601e+13
1.01613e+13
1.01625e+13
1.01638e+13
1.01651e+13
1.01665e+13
1.01679e+13
1.01694e+13
1.01709e+13
1.01725e+13
1.01741e+13
1.01758e+13
1.01776e+13
1.01793e+13
1.01812e+13
1.01831e+13
1.01851e+13
1.01872e+13
1.01893e+13
1.01915e+13
1.01937e+13
1.0196e+13
1.01984e+13
1.02009e+13
1.02034e+13
1.02061e+13
1.02088e+13
1.02116e+13
1.02144e+13
1.02174e+13
1.02204e+13
1.02236e+13
1.02268e+13
1.02301e+13
1.02335e+13
1.0237e+13
1.02406e+13
1.02442e+13
1.0248e+13
1.02518e+13
1.02557e+13
1.02596e+13
1.02637e+13
1.02678e+13
1.02719e+13
1.02761e+13
1.02803e+13
1.02845e+13
1.02887e+13
1.02928e+13
1.0297e+13
1.0301e+13
1.0305e+13
1.03089e+13
1.03127e+13
1.03163e+13
1.03198e+13
1.0323e+13
1.0326e+13
1.03288e+13
1.03313e+13
1.03335e+13
1.03354e+13
1.0337e+13
1.03383e+13
1.01401e+13
1.01401e+13
1.01402e+13
1.01402e+13
1.01404e+13
1.01405e+13
1.01407e+13
1.01409e+13
1.01411e+13
1.01414e+13
1.01416e+13
1.01419e+13
1.01423e+13
1.01427e+13
1.01431e+13
1.01435e+13
1.0144e+13
1.01445e+13
1.0145e+13
1.01455e+13
1.01461e+13
1.01467e+13
1.01474e+13
1.01481e+13
1.01488e+13
1.01496e+13
1.01503e+13
1.01512e+13
1.0152e+13
1.01529e+13
1.01539e+13
1.01548e+13
1.01558e+13
1.01569e+13
1.0158e+13
1.01591e+13
1.01603e+13
1.01615e+13
1.01628e+13
1.01641e+13
1.01654e+13
1.01668e+13
1.01683e+13
1.01698e+13
1.01713e+13
1.01729e+13
1.01746e+13
1.01763e+13
1.01781e+13
1.01799e+13
1.01818e+13
1.01837e+13
1.01857e+13
1.01878e+13
1.01899e+13
1.01921e+13
1.01944e+13
1.01967e+13
1.01991e+13
1.02016e+13
1.02042e+13
1.02068e+13
1.02095e+13
1.02123e+13
1.02152e+13
1.02181e+13
1.02211e+13
1.02242e+13
1.02274e+13
1.02307e+13
1.02341e+13
1.02375e+13
1.0241e+13
1.02446e+13
1.02483e+13
1.0252e+13
1.02558e+13
1.02596e+13
1.02635e+13
1.02674e+13
1.02714e+13
1.02753e+13
1.02793e+13
1.02833e+13
1.02872e+13
1.0291e+13
1.02949e+13
1.02986e+13
1.03023e+13
1.03058e+13
1.03092e+13
1.03124e+13
1.03155e+13
1.03183e+13
1.03209e+13
1.03232e+13
1.03253e+13
1.03271e+13
1.03286e+13
1.03299e+13
1.01393e+13
1.01393e+13
1.01394e+13
1.01395e+13
1.01396e+13
1.01397e+13
1.01399e+13
1.01401e+13
1.01403e+13
1.01406e+13
1.01408e+13
1.01412e+13
1.01415e+13
1.01419e+13
1.01423e+13
1.01427e+13
1.01431e+13
1.01436e+13
1.01442e+13
1.01447e+13
1.01453e+13
1.01459e+13
1.01465e+13
1.01472e+13
1.01479e+13
1.01487e+13
1.01495e+13
1.01503e+13
1.01511e+13
1.0152e+13
1.01529e+13
1.01539e+13
1.01549e+13
1.01559e+13
1.0157e+13
1.01581e+13
1.01593e+13
1.01605e+13
1.01617e+13
1.0163e+13
1.01643e+13
1.01657e+13
1.01671e+13
1.01686e+13
1.01701e+13
1.01717e+13
1.01733e+13
1.0175e+13
1.01767e+13
1.01785e+13
1.01804e+13
1.01823e+13
1.01842e+13
1.01862e+13
1.01883e+13
1.01905e+13
1.01927e+13
1.0195e+13
1.01973e+13
1.01997e+13
1.02022e+13
1.02048e+13
1.02074e+13
1.02101e+13
1.02129e+13
1.02158e+13
1.02187e+13
1.02217e+13
1.02248e+13
1.02279e+13
1.02312e+13
1.02344e+13
1.02378e+13
1.02413e+13
1.02448e+13
1.02483e+13
1.02519e+13
1.02556e+13
1.02593e+13
1.0263e+13
1.02668e+13
1.02705e+13
1.02743e+13
1.0278e+13
1.02817e+13
1.02853e+13
1.02889e+13
1.02924e+13
1.02958e+13
1.02992e+13
1.03023e+13
1.03054e+13
1.03082e+13
1.03109e+13
1.03133e+13
1.03155e+13
1.03175e+13
1.03192e+13
1.03206e+13
1.03218e+13
1.01385e+13
1.01385e+13
1.01386e+13
1.01387e+13
1.01388e+13
1.01389e+13
1.01391e+13
1.01393e+13
1.01395e+13
1.01398e+13
1.014e+13
1.01403e+13
1.01407e+13
1.0141e+13
1.01414e+13
1.01419e+13
1.01423e+13
1.01428e+13
1.01433e+13
1.01438e+13
1.01444e+13
1.0145e+13
1.01457e+13
1.01463e+13
1.0147e+13
1.01478e+13
1.01485e+13
1.01493e+13
1.01502e+13
1.01511e+13
1.0152e+13
1.01529e+13
1.01539e+13
1.01549e+13
1.0156e+13
1.01571e+13
1.01582e+13
1.01594e+13
1.01606e+13
1.01619e+13
1.01632e+13
1.01646e+13
1.0166e+13
1.01674e+13
1.01689e+13
1.01704e+13
1.0172e+13
1.01737e+13
1.01754e+13
1.01771e+13
1.01789e+13
1.01808e+13
1.01827e+13
1.01847e+13
1.01867e+13
1.01888e+13
1.0191e+13
1.01932e+13
1.01955e+13
1.01979e+13
1.02003e+13
1.02028e+13
1.02053e+13
1.02079e+13
1.02106e+13
1.02134e+13