/*--------------------------------*- C++ -*----------------------------------*\
  =========                 |
  \\      /  F ield         | OpenFOAM: The Open Source CFD Toolbox
   \\    /   O peration     | Website:  https://openfoam.org
    \\  /    A nd           | Version:  7
     \\/     M anipulation  |
\*---------------------------------------------------------------------------*/
FoamFile
{
    version     2.0;
    format      ascii;
    class       volVectorField;
    location    "0/insulator";
    object      EI;
}
// * * * * * * * * * * * * * * * * * * * * * * * * * * * * * * * * * * * * * //

dimensions      [1 1 -3 0 0 -1 0];

internalField   nonuniform List<vector> 
98782
(
(-323.223 89.3525 0)
(-1605.68 549.1 0)
(-3295.23 865.696 0)
(-4290.19 649.557 0)
(-4636.92 417.276 0)
(-4745.72 281.001 0)
(-4782.09 210.863 0)
(-4795.67 176.157 0)
(-4801.28 159.224 0)
(-4803.76 151.009 0)
(-4805.02 146.629 0)
(-4805.97 143.225 0)
(-4806.9 139.816 0)
(-4807.81 136.404 0)
(-4808.69 132.986 0)
(-4809.55 129.565 0)
(-4810.39 126.139 0)
(-4811.2 122.71 0)
(-4811.99 119.276 0)
(-4812.76 115.838 0)
(-4813.51 112.396 0)
(-176.808 213.328 0)
(-1250.48 1461.87 0)
(-3381.6 2767.76 0)
(-5242.15 2388.08 0)
(-6091.69 1638.28 0)
(-6394.09 1152.32 0)
(-6503.86 894.101 0)
(-6547.36 764.744 0)
(-6566.05 701.294 0)
(-6574.52 670.437 0)
(-6578.87 653.964 0)
(-6582.18 641.155 0)
(-6585.43 628.32 0)
(-6588.63 615.46 0)
(-6591.77 602.574 0)
(-6594.86 589.665 0)
(-6597.88 576.731 0)
(-6600.86 563.772 0)
(-6603.77 550.789 0)
(-6606.63 537.783 0)
(-6609.44 524.754 0)
(1.13911 247.794 0)
(-610.398 2001.53 0)
(-3077.65 4907.21 0)
(-6436.95 5330.31 0)
(-8578.7 4066.68 0)
(-9459.91 3032.27 0)
(-9802.67 2444.45 0)
(-9943.87 2142.45 0)
(-10005.9 1992.73 0)
(-10034.3 1919.57 0)
(-10049 1880.42 0)
(-10060.3 1849.94 0)
(-10071.3 1819.35 0)
(-10082.3 1788.66 0)
(-10093 1757.87 0)
(-10103.7 1726.98 0)
(-10114.1 1695.99 0)
(-10124.4 1664.9 0)
(-10134.5 1633.72 0)
(-10144.5 1602.44 0)
(-10154.4 1571.06 0)
(155.339 232.373 0)
(177.947 2204.53 0)
(-2041.54 6889.51 0)
(-7093.62 9770.7 0)
(-11649.2 8564.3 0)
(-13903.8 6807.49 0)
(-14846.9 5681.26 0)
(-15248.4 5077.66 0)
(-15427.5 4773.13 0)
(-15510.4 4623.14 0)
(-15553.4 4542.6 0)
(-15586.4 4479.74 0)
(-15618.9 4416.53 0)
(-15651.1 4352.97 0)
(-15682.8 4289.06 0)
(-15714.2 4224.81 0)
(-15745.2 4160.22 0)
(-15775.7 4095.29 0)
(-15805.9 4030.02 0)
(-15835.7 3964.43 0)
(-15865 3898.51 0)
(269.354 198.361 0)
(940.928 2173.56 0)
(-278.839 8252.82 0)
(-6442.52 15164.6 0)
(-14343.1 15735.7 0)
(-19266.1 13438.1 0)
(-21514.3 11593.6 0)
(-22505.2 10534.7 0)
(-22954 9985.84 0)
(-23163.1 9712.26 0)
(-23272.1 9564.55 0)
(-23355.6 9448.87 0)
(-23438.3 9332.16 0)
(-23520.1 9214.41 0)
(-23601 9095.64 0)
(-23681.1 8975.87 0)
(-23760.3 8855.09 0)
(-23838.6 8733.31 0)
(-23915.9 8610.54 0)
(-23992.3 8486.79 0)
(-24067.8 8362.08 0)
(346.973 162.506 0)
(1568.26 2026.33 0)
(1858.42 8860.41 0)
(-4120.66 20333.3 0)
(-15415.6 25382.8 0)
(-24486.3 23535.1 0)
(-29116.1 21019.3 0)
(-31243.5 19399.8 0)
(-32223.5 18524.4 0)
(-32683.1 18080.2 0)
(-32923.7 17838.4 0)
(-33108.4 17648.1 0)
(-33291.4 17455.2 0)
(-33472.9 17259.6 0)
(-33652.7 17061.4 0)
(-33830.8 16860.7 0)
(-34007.2 16657.3 0)
(-34181.7 16451.4 0)
(-34354.5 16243 0)
(-34525.4 16032 0)
(-34694.4 15818.5 0)
(397.858 131.503 0)
(2033.57 1847.54 0)
(3942.58 8883.4 0)
(-424.434 24257.5 0)
(-14038.8 36238.7 0)
(-28158.7 36858.8 0)
(-36424.1 34186.1 0)
(-40423.7 32063.3 0)
(-42304.1 30837.7 0)
(-43193.8 30199 0)
(-43661.3 29847.2 0)
(-44021.1 29568.3 0)
(-44378.4 29283.6 0)
(-44733.1 28992.9 0)
(-45085.3 28696.5 0)
(-45434.6 28394.3 0)
(-45781 28086.3 0)
(-46124.4 27772.5 0)
(-46464.8 27452.9 0)
(-46801.9 27127.7 0)
(-47135.7 26796.9 0)
(430.859 106.947 0)
(2359.22 1681.3 0)
(5704.91 8586.82 0)
(3890.08 26624.6 0)
(-10275 46523.1 0)
(-29192.8 52157.6 0)
(-42075.6 50393.6 0)
(-48705 48082 0)
(-51900.4 46594.3 0)
(-53428.5 45787.2 0)
(-54235.6 45334.7 0)
(-54858.5 44972.3 0)
(-55478.5 44598.6 0)
(-56095.4 44213.4 0)
(-56709 43816.9 0)
(-57318.9 43409.1 0)
(-57925 42990 0)
(-58527 42559.4 0)
(-59124.6 42117.6 0)
(-59717.6 41664.5 0)
(-60305.7 41200.1 0)
(452.354 88.3603 0)
(2580.97 1543.75 0)
(7068.52 8179.5 0)
(8073.9 27710.2 0)
(-4952.88 54915.9 0)
(-27421.8 67589.8 0)
(-45180.7 68102.2 0)
(-54954.9 66151.7 0)
(-59801.4 64613.5 0)
(-62147.9 63724.3 0)
(-63394.6 63212.8 0)
(-64360.2 62796.9 0)
(-65323.9 62361.8 0)
(-66285.3 61907.4 0)
(-67243.9 61433.7 0)
(-68199.1 60940.6 0)
(-69150.5 60427.9 0)
(-70097.6 59895.7 0)
(-71040.1 59343.9 0)
(-71977.2 58772.4 0)
(-72908.5 58181.3 0)
(466.511 74.6413 0)
(2730.69 1436.7 0)
(8070.79 7779.68 0)
(11678 27984.1 0)
(858.719 61015.7 0)
(-23577.7 81500.6 0)
(-45691.9 85477.4 0)
(-58702.1 84504.1 0)
(-65343.1 83192.6 0)
(-68600.7 82346.6 0)
(-70342.4 81840 0)
(-71696.6 81418.7 0)
(-73052 80968.8 0)
(-74407.8 80490.2 0)
(-75763.4 79982.4 0)
(-77117.9 79445.2 0)
(-78470.5 78878.5 0)
(-79820.6 78281.8 0)
(-81167.3 77655.1 0)
(-82509.8 76998.2 0)
(-83847.1 76310.9 0)
(475.962 64.6642 0)
(2831.96 1356.26 0)
(8787.69 7437.42 0)
(14558.5 27844.6 0)
(6323.09 65105.7 0)
(-18748.7 92975.8 0)
(-44261.7 101048 0)
(-60207.3 101522 0)
(-68569.8 100683 0)
(-72722.7 100001 0)
(-74956.8 99563.2 0)
(-76700 99186 0)
(-78449.6 98770.6 0)
(-80204.7 98316.4 0)
(-81964.1 97823 0)
(-83726.7 97289.7 0)
(-85491.5 96716 0)
(-87257.6 96101.4 0)
(-89023.7 95445.4 0)
(-90788.5 94747.7 0)
(-92551 94007.8 0)
(482.353 57.4739 0)
(2900.88 1297.04 0)
(9293.93 7164.69 0)
(16756.3 27546 0)
(10995.4 67715.4 0)
(-13864.6 101862 0)
(-41782.4 114045 0)
(-60149.2 116178 0)
(-70008.7 115958 0)
(-74957.9 115518 0)
(-77634.7 115194 0)
(-79730.1 114896 0)
(-81838.3 114551 0)
(-83958.1 114159 0)
(-86088.4 113718 0)
(-88227.6 113227 0)
(-90374.6 112686 0)
(-92528 112093 0)
(-94686.4 111449 0)
(-96848.2 110751 0)
(-99011.8 110000 0)
(486.722 52.3214 0)
(2948.15 1254.03 0)
(9649.69 6956.2 0)
(18386.2 27222.7 0)
(14750.8 69339.7 0)
(-9490.07 108468 0)
(-39003.3 124346 0)
(-59241.6 128105 0)
(-70313.8 128538 0)
(-75921 128370 0)
(-78967.2 128177 0)
(-81357.9 127974 0)
(-83768.1 127718 0)
(-86196.6 127406 0)
(-88641.8 127038 0)
(-91102.3 126612 0)
(-93576.5 126126 0)
(-96063 125581 0)
(-98560 124974 0)
(-101066 124305 0)
(-103578 123572 0)
(489.736 48.6429 0)
(2980.8 1223.03 0)
(9899.47 6800.86 0)
(19574.4 26933.6 0)
(17648.7 70344 0)
(-5858.59 113258 0)
(-36392.1 132218 0)
(-58018.8 137419 0)
(-70027.5 138457 0)
(-76151.3 138549 0)
(-79489.6 138485 0)
(-82115 138377 0)
(-84766.2 138210 0)
(-87441.6 137981 0)
(-90139.8 137690 0)
(-92859 137334 0)
(-95597.7 136913 0)
(-98354.4 136424 0)
(-101127 135867 0)
(-103913 135239 0)
(-106712 134540 0)
(491.83 46.0231 0)
(3003.5 1200.81 0)
(10075 6686.99 0)
(20431.5 26697.2 0)
(19825.2 70968.8 0)
(-2990.34 116685 0)
(-34165.9 138088 0)
(-56798.2 144481 0)
(-69508.1 146036 0)
(-76023.5 146354 0)
(-79584.8 146403 0)
(-82390 146379 0)
(-85226.2 146292 0)
(-88091.8 146139 0)
(-90985.3 145919 0)
(-93904.9 145630 0)
(-96848.9 145270 0)
(-99815.8 144836 0)
(-102803 144329 0)
(-105809 143745 0)
(-108832 143083 0)
(493.292 44.1604 0)
(3019.34 1184.95 0)
(10198.5 6604.42 0)
(21045.9 26513.5 0)
(21430.2 71362.7 0)
(-799.484 119120 0)
(-32378.5 142392 0)
(-55729.7 149728 0)
(-68954.3 151698 0)
(-75760.2 152201 0)
(-79487.5 152343 0)
(-82427.1 152389 0)
(-85401.7 152369 0)
(-88410 152279 0)
(-91450.3 152119 0)
(-94520.7 151887 0)
(-97619.7 151579 0)
(-100745 151195 0)
(-103896 150731 0)
(-107069 150187 0)
(-110261 149560 0)
(494.317 42.8375 0)
(3030.46 1173.65 0)
(10285.5 6544.97 0)
(21484.5 26375.1 0)
(22599.4 71615.6 0)
(836.154 120845 0)
(-30998.8 145515 0)
(-54860.5 153569 0)
(-68458 155862 0)
(-75476.1 156510 0)
(-79325.2 156725 0)
(-82363.4 156826 0)
(-85439.9 156858 0)
(-88553.3 156820 0)
(-91701.9 156708 0)
(-94883.9 156521 0)
(-98097.6 156256 0)
(-101341 155911 0)
(-104612 155484 0)
(-107909 154973 0)
(-111229 154376 0)
(495.038 41.8987 0)
(3038.27 1165.62 0)
(10346.9 6502.39 0)
(21796.8 26272.8 0)
(23443.8 71780.8 0)
(2038.22 122065 0)
(-29961.2 147763 0)
(-54184.5 156354 0)
(-68050.2 158890 0)
(-75221.8 159648 0)
(-79159.2 159919 0)
(-82269 160062 0)
(-85419.6 160135 0)
(-88609.5 160135 0)
(-91837.1 160060 0)
(-95100.4 159908 0)
(-98397.8 159677 0)
(-101728 159363 0)
(-105087 158965 0)
(-108475 158481 0)
(-111887 157908 0)
(495.547 41.2329 0)
(3043.77 1159.91 0)
(10390.3 6471.98 0)
(22018.8 26198.2 0)
(24050.3 71890.6 0)
(2912.06 122927 0)
(-29194.9 149373 0)
(-53673.8 158360 0)
(-67731.6 161076 0)
(-75013.4 161915 0)
(-79014.4 162228 0)
(-82175.8 162403 0)
(-85379.9 162506 0)
(-88625 162535 0)
(-91909.6 162488 0)
(-95231.8 162363 0)
(-98589.9 162156 0)
(-101982 161866 0)
(-105406 161490 0)
(-108859 161026 0)
(-112339 160471 0)
(495.905 40.7607 0)
(3047.66 1155.86 0)
(10421 6450.32 0)
(22176.4 26144.3 0)
(24484 71964.7 0)
(3542.45 123537 0)
(-28636 150523 0)
(-53295.7 159797 0)
(-67490.3 162645 0)
(-74851 163544 0)
(-78897.5 163888 0)
(-82096 164085 0)
(-85338.4 164210 0)
(-88623.2 164261 0)
(-91948.8 164235 0)
(-95313.3 164129 0)
(-98714.9 163941 0)
(-102152 163669 0)
(-105622 163309 0)
(-109122 162860 0)
(-112651 162319 0)
(496.373 40.1422 0)
(3052.73 1150.54 0)
(10461.1 6421.78 0)
(22383.1 26072 0)
(25055.4 72055.8 0)
(4378.14 124334 0)
(-27889.3 152041 0)
(-52785.2 161704 0)
(-67159.8 164730 0)
(-74624.4 165711 0)
(-78731 166096 0)
(-81978.4 166325 0)
(-85271.4 166481 0)
(-88608.6 166561 0)
(-91988.4 166563 0)
(-95408.8 166485 0)
(-98868.1 166322 0)
(-102364 166074 0)
(-105895 165737 0)
(-109459 165310 0)
(-113052 164788 0)
(497.009 39.2961 0)
(3059.61 1143.27 0)
(10515.6 6382.57 0)
(22666.5 25971.1 0)
(25847.6 72172.9 0)
(5552 125420 0)
(-26823 154133 0)
(-52040.3 164340 0)
(-66663.1 167619 0)
(-74271.9 168715 0)
(-78461.9 169160 0)
(-81777.3 169434 0)
(-85140.9 169633 0)
(-88551.1 169755 0)
(-92006.4 169798 0)
(-95504.9 169758 0)
(-99044.7 169632 0)
(-102624 169419 0)
(-106241 169115 0)
(-109892 168718 0)
(-113576 168224 0)
(497.641 38.449 0)
(3066.46 1135.97 0)
(10570 6343.04 0)
(22950.8 25867.5 0)
(26651.2 72279.8 0)
(6758.4 126502 0)
(-25709.2 156247 0)
(-51246.1 167020 0)
(-66119.3 170562 0)
(-73874.1 171780 0)
(-78149 172287 0)
(-81533.6 172608 0)
(-84969 172853 0)
(-88453.7 173020 0)
(-91986.1 173105 0)
(-95564.3 173106 0)
(-99186.6 173020 0)
(-102851 172844 0)
(-106555 172575 0)
(-110297 172211 0)
(-114073 171747 0)
(498.27 37.6008 0)
(3073.26 1128.66 0)
(10624.2 6303.21 0)
(23236 25761 0)
(27466.1 72376.2 0)
(7997.92 127579 0)
(-24546.6 158382 0)
(-50400.5 169743 0)
(-65526.1 173561 0)
(-73429 174906 0)
(-77790 175478 0)
(-81245 175849 0)
(-84753.5 176143 0)
(-88314.1 176356 0)
(-91925.2 176487 0)
(-95584.8 176532 0)
(-99291.3 176487 0)
(-103043 176351 0)
(-106837 176120 0)
(-110671 175790 0)
(-114542 175360 0)
(498.895 36.7515 0)
(3080.02 1121.32 0)
(10678.1 6263.08 0)
(23522 25651.6 0)
(28292.4 72461.8 0)
(9271.33 128649 0)
(-23333.4 160540 0)
(-49501.3 172509 0)
(-64881.2 176615 0)
(-72934 178094 0)
(-77382.5 178735 0)
(-80909 179158 0)
(-84491.9 179503 0)
(-88129.8 179766 0)
(-91821.2 179945 0)
(-95563.9 180036 0)
(-99356.4 180036 0)
(-103197 179942 0)
(-107083 179751 0)
(-111011 179460 0)
(-114981 179065 0)
(499.516 35.9012 0)
(3086.73 1113.97 0)
(10731.9 6222.64 0)
(23808.9 25539.3 0)
(29130.2 72536.3 0)
(10579.2 129714 0)
(-22068 162717 0)
(-48546.5 175319 0)
(-64182.2 179726 0)
(-72386.6 181344 0)
(-76923.9 182059 0)
(-80523.1 182537 0)
(-84181.7 182935 0)
(-87898.4 183251 0)
(-91671.5 183481 0)
(-95499 183621 0)
(-99379.4 183668 0)
(-103311 183620 0)
(-107290 183472 0)
(-111316 183221 0)
(-115385 182864 0)
(500.133 35.0498 0)
(3093.41 1106.59 0)
(10785.4 6181.9 0)
(24096.5 25424.1 0)
(29979.3 72599.4 0)
(11922.3 130770 0)
(-20748.8 164916 0)
(-47533.7 178173 0)
(-63426.5 182894 0)
(-71784.4 184659 0)
(-76411.7 185450 0)
(-80084.7 185986 0)
(-83820.2 186441 0)
(-87617 186812 0)
(-91473.4 187095 0)
(-95387.4 187288 0)
(-99357.5 187385 0)
(-103382 187385 0)
(-107458 187283 0)
(-111583 187076 0)
(-115754 186760 0)
(500.746 34.1974 0)
(3100.04 1099.2 0)
(10838.7 6140.85 0)
(24384.8 25306 0)
(30839.8 72650.7 0)
(13301.1 131818 0)
(-19374.1 167134 0)
(-46460.6 181071 0)
(-62611.6 186120 0)
(-71124.5 188038 0)
(-75843 188909 0)
(-79590.9 189506 0)
(-83404.7 190021 0)
(-87282.9 190450 0)
(-91224.1 190790 0)
(-95226.3 191038 0)
(-99287.9 191189 0)
(-103407 191240 0)
(-107581 191187 0)
(-111808 191026 0)
(-116085 190755 0)
(501.356 33.3439 0)
(3106.62 1091.79 0)
(10891.8 6099.51 0)
(24673.7 25185 0)
(31711.7 72690.1 0)
(14716.2 132856 0)
(-17942.3 169370 0)
(-45324.9 184012 0)
(-61734.8 189403 0)
(-70404.2 191483 0)
(-75215 192437 0)
(-79038.9 193098 0)
(-82932.1 193676 0)
(-86893.2 194167 0)
(-90920.7 194568 0)
(-95012.7 194873 0)
(-99167.7 195081 0)
(-103384 195186 0)
(-107658 195186 0)
(-111989 195075 0)
(-116373 194851 0)
(501.962 32.4894 0)
(3113.16 1084.36 0)
(10944.7 6057.86 0)
(24963.3 25061 0)
(32595 72717.1 0)
(16168.5 133884 0)
(-16451.4 171625 0)
(-44123.8 186997 0)
(-60793.2 192746 0)
(-69620.5 194994 0)
(-74524.8 196036 0)
(-78425.7 196765 0)
(-82399.4 197409 0)
(-86444.7 197965 0)
(-90560 198428 0)
(-94743.5 198796 0)
(-98993.6 199064 0)
(-103308 199227 0)
(-107686 199282 0)
(-112123 199225 0)
(-116617 199051 0)
(502.564 31.6339 0)
(3119.66 1076.91 0)
(10997.2 6015.92 0)
(25253.4 24934 0)
(33489.6 72731.6 0)
(17658.6 134900 0)
(-14899.7 173898 0)
(-42854.9 190026 0)
(-59783.9 196147 0)
(-68770.4 198571 0)
(-73769.1 199706 0)
(-77748.1 200506 0)
(-81803.5 201219 0)
(-85934.3 201844 0)
(-90138.8 202374 0)
(-94415.4 202807 0)
(-98762.5 203138 0)
(-103178 203363 0)
(-107660 203478 0)
(-112206 203477 0)
(-116813 203358 0)
(503.163 30.7774 0)
(3126.11 1069.44 0)
(11049.6 5973.68 0)
(25543.9 24804.1 0)
(34395.4 72733.1 0)
(19186.9 135903 0)
(-13285.4 176186 0)
(-41515.6 193099 0)
(-58704 199607 0)
(-67850.8 202217 0)
(-72944.9 203448 0)
(-77002.8 204322 0)
(-81141.1 205109 0)
(-85358.5 205805 0)
(-89653.8 206407 0)
(-94025.1 206908 0)
(-98470.9 207307 0)
(-102989 207597 0)
(-107578 207774 0)
(-112235 207835 0)
(-116957 207774 0)
(503.757 29.9198 0)
(3132.52 1061.96 0)
(11101.7 5931.14 0)
(25834.9 24671.1 0)
(35312.5 72721.3 0)
(20754.3 136893 0)
(-11606.5 178491 0)
(-40103 196215 0)
(-57550.3 203127 0)
(-66858.3 205930 0)
(-72048.8 207263 0)
(-76186.5 208215 0)
(-80408.6 209079 0)
(-84713.9 209851 0)
(-89101.3 210527 0)
(-93568.8 211102 0)
(-98115.1 211571 0)
(-102738 211930 0)
(-107436 212175 0)
(-112206 212300 0)
(-117046 212301 0)
(504.348 29.0612 0)
(3138.88 1054.45 0)
(11153.5 5888.31 0)
(26126.3 24535.2 0)
(36240.7 72696.1 0)
(22361.4 137867 0)
(-9861.17 180809 0)
(-38614.3 199373 0)
(-56319.5 206707 0)
(-65789.5 209712 0)
(-71077.1 211152 0)
(-75295.4 212185 0)
(-79602.4 213130 0)
(-83996.9 213982 0)
(-88477.6 214736 0)
(-93042.9 215388 0)
(-97691.4 215933 0)
(-102421 216365 0)
(-107230 216681 0)
(-112116 216875 0)
(-117076 216943 0)
(504.935 28.2016 0)
(3145.19 1046.93 0)
(11205 5845.18 0)
(26418 24396.2 0)
(37180.1 72656.9 0)
(24008.7 138826 0)
(-8047.42 183141 0)
(-37046.5 202574 0)
(-55008.2 210348 0)
(-64640.9 213564 0)
(-70026.3 215115 0)
(-74326.1 216234 0)
(-78718.9 217264 0)
(-83203.5 218199 0)
(-87779 219036 0)
(-92443.6 219769 0)
(-97195.9 220393 0)
(-102034 220904 0)
(-106957 221295 0)
(-111960 221562 0)
(-117043 221701 0)
(505.518 27.341 0)
(3151.46 1039.39 0)
(11256.2 5801.77 0)
(26709.9 24254.2 0)
(38130.4 72603.6 0)
(25696.9 139766 0)
(-6163.27 185485 0)
(-35396.8 205818 0)
(-53613.1 214048 0)
(-63408.7 217485 0)
(-68892.7 219152 0)
(-73274.6 220361 0)
(-77754 221480 0)
(-82329.9 222504 0)
(-87001.3 223428 0)
(-91766.5 224246 0)
(-96624.3 224955 0)
(-101573 225547 0)
(-106611 226019 0)
(-111735 226364 0)
(-116943 226577 0)
(506.098 26.4795 0)
(3157.68 1031.83 0)
(11307.2 5758.06 0)
(27002 24109.2 0)
(39091.6 72535.8 0)
(27426.5 140688 0)
(-4206.82 187839 0)
(-33662 209102 0)
(-52130.5 217808 0)
(-62089.4 221475 0)
(-67672.3 223265 0)
(-72137 224568 0)
(-76703.8 225781 0)
(-81372 226897 0)
(-86140.4 227912 0)
(-91007.7 228821 0)
(-95972.6 229618 0)
(-101034 230297 0)
(-106189 230854 0)
(-111435 231282 0)
(-116771 231575 0)
(506.673 25.6169 0)
(3163.86 1024.25 0)
(11357.9 5714.06 0)
(27294.2 23961.1 0)
(40063.6 72453.2 0)
(29198.2 141590 0)
(-2175.78 190203 0)
(-31838.8 212428 0)
(-50556.7 221629 0)
(-60678.6 225536 0)
(-66361 227454 0)
(-70908.9 228856 0)
(-75563.9 230166 0)
(-80325.2 231380 0)
(-85191.9 232491 0)
(-90162.5 233495 0)
(-95236 234385 0)
(-100411 235157 0)
(-105685 235803 0)
(-111057 236319 0)
(-116523 236697 0)
(507.245 24.7533 0)
(3169.99 1016.66 0)
(11408.2 5669.78 0)
(27586.4 23809.9 0)
(41046.3 72355.5 0)
(31012.6 142470 0)
(-68.1811 192574 0)
(-29924 215793 0)
(-48887.7 225509 0)
(-59172.5 229668 0)
(-64954.6 231719 0)
(-69586.3 233224 0)
(-74330 234637 0)
(-79185.3 235953 0)
(-84151.2 237166 0)
(-89226.4 238269 0)
(-94409.9 239258 0)
(-99700.4 240127 0)
(-105096 240868 0)
(-110594 241476 0)
(-116193 241946 0)
(507.813 23.8889 0)
(3176.07 1009.05 0)
(11458.3 5625.21 0)
(27878.6 23655.7 0)
(42039.4 72242.3 0)
(32870.1 143327 0)
(2117.96 194951 0)
(-27914.4 219197 0)
(-47119.8 229448 0)
(-57566.9 233870 0)
(-63448.8 236060 0)
(-68164.5 237674 0)
(-72997.6 239194 0)
(-77947.6 240617 0)
(-83013.6 241936 0)
(-88194.6 243145 0)
(-93489.5 244238 0)
(-98897.2 245208 0)
(-104416 246050 0)
(-110043 246757 0)
(-115777 247323 0)
(508.376 23.0234 0)
(3182.1 1001.42 0)
(11508 5580.36 0)
(28170.7 23498.4 0)
(43043 72113.4 0)
(34771.5 144159 0)
(4385.06 197332 0)
(-25806.1 222639 0)
(-45248.7 233448 0)
(-55857.2 238142 0)
(-61838.9 240479 0)
(-66639 242205 0)
(-71561.8 243839 0)
(-76607.1 245374 0)
(-81774.1 246804 0)
(-87061.9 248123 0)
(-92469.5 249325 0)
(-97995.9 250404 0)
(-103639 251352 0)
(-109398 252163 0)
(-115269 252831 0)
(508.936 22.157 0)
(3188.08 993.774 0)
(11557.4 5535.22 0)
(28462.7 23338 0)
(44056.8 71968.4 0)
(36717.1 144966 0)
(6735.15 199716 0)
(-23595.9 226119 0)
(-43270.1 237505 0)
(-54038.9 242485 0)
(-60120.4 244974 0)
(-65004.9 246818 0)
(-70017.8 248570 0)
(-75158.9 250222 0)
(-80427.7 251770 0)
(-85823.2 253205 0)
(-91344.7 254522 0)
(-96991.3 255715 0)
(-102761 256775 0)
(-108652 257696 0)
(-114663 258472 0)
(509.493 21.2896 0)
(3194.02 986.111 0)
(11606.5 5489.8 0)
(28754.4 23174.6 0)
(45080.6 71807.1 0)
(38707.4 145744 0)
(9170.29 202100 0)
(-21280.1 229633 0)
(-41179.9 241621 0)
(-52107.5 246898 0)
(-58288.3 249545 0)
(-63257.3 251513 0)
(-68360.5 253388 0)
(-73597.8 255164 0)
(-78969 256834 0)
(-84473.1 258392 0)
(-90109.6 259830 0)
(-95877.7 261142 0)
(-101776 262320 0)
(-107802 263358 0)
(-113954 264248 0)
(510.045 20.4213 0)
(3199.9 978.431 0)
(11655.2 5444.11 0)
(29045.8 23008 0)
(46114.3 71629 0)
(40743.1 146494 0)
(11693 204482 0)
(-18854.7 233182 0)
(-38973.3 245794 0)
(-50057.8 251380 0)
(-56337.6 254194 0)
(-61390.9 256291 0)
(-66584.4 258295 0)
(-71918.3 260200 0)
(-77392.4 261998 0)
(-83005.8 263684 0)
(-88758.3 265249 0)
(-94649.2 266687 0)
(-100677 267991 0)
(-106840 269151 0)
(-113136 270162 0)
(510.593 19.552 0)
(3205.74 970.733 0)
(11703.6 5398.13 0)
(29336.8 22838.3 0)
(47157.6 71434 0)
(42824.5 147212 0)
(14305.3 206859 0)
(-16316.1 236764 0)
(-36645.8 250023 0)
(-47885.1 255932 0)
(-54263.1 258918 0)
(-59400.4 261150 0)
(-64684.3 263289 0)
(-70114.9 265329 0)
(-75692.2 267263 0)
(-81415.6 269082 0)
(-87285 270781 0)
(-93299.7 272352 0)
(-99458.3 273787 0)
(-105759 275077 0)
(-112201 276216 0)
(511.137 18.6818 0)
(3211.52 963.02 0)
(11751.7 5351.88 0)
(29627.3 22665.6 0)
(48210.4 71221.7 0)
(44952.1 147898 0)
(17009.6 209230 0)
(-13660.2 240376 0)
(-34192.5 254308 0)
(-45584 260552 0)
(-52059.4 263719 0)
(-57280.4 266091 0)
(-62654.3 268372 0)
(-68181.6 270553 0)
(-73862.5 272627 0)
(-79696.4 274588 0)
(-85683.3 276427 0)
(-91822.9 278137 0)
(-98113.9 279710 0)
(-104555 281138 0)
(-111144 282411 0)
(511.678 17.8107 0)
(3217.26 955.289 0)
(11799.3 5305.36 0)
(29917.3 22489.7 0)
(49272.2 70991.8 0)
(47126.2 148550 0)
(19808.1 211592 0)
(-10883.1 244017 0)
(-31608.6 258647 0)
(-43149.3 265240 0)
(-49721 268595 0)
(-55025 271114 0)
(-60488.7 273542 0)
(-66112.6 275870 0)
(-71897.1 278093 0)
(-77841.8 280201 0)
(-83947 282187 0)
(-90212.3 284044 0)
(-96636.7 285762 0)
(-103219 287334 0)
(-109958 288750 0)
(512.214 16.9387 0)
(3222.95 947.543 0)
(11846.7 5258.57 0)
(30206.6 22310.8 0)
(50343 70743.9 0)
(49347 149165 0)
(22702.8 213941 0)
(-7980.71 247685 0)
(-28889.1 263038 0)
(-40575.6 269994 0)
(-47242.3 273545 0)
(-52628.7 276217 0)
(-58181.5 278799 0)
(-63901.7 281282 0)
(-69789.8 283658 0)
(-75845.6 285921 0)
(-82069.4 288062 0)
(-88461.2 290072 0)
(-95020.1 291943 0)
(-101745 293667 0)
(-108635 295233 0)
(512.747 16.0658 0)
(3228.58 939.781 0)
(11893.6 5211.5 0)
(30495.2 22128.7 0)
(51422.4 70477.9 0)
(51615.1 149742 0)
(25696.5 216276 0)
(-4948.54 251378 0)
(-26028.4 267480 0)
(-37856.9 274815 0)
(-44617.1 278570 0)
(-50084.9 281401 0)
(-55726.3 284143 0)
(-61542.3 286787 0)
(-67533.7 289325 0)
(-73700.6 291750 0)
(-80043.3 294052 0)
(-86562.2 296224 0)
(-93256.4 298256 0)
(-100125 300139 0)
(-107167 301864 0)
(513.275 15.1919 0)
(3234.17 932.002 0)
(11940.1 5164.17 0)
(30783.1 21943.6 0)
(52510.1 70193.4 0)
(53930.8 150279 0)
(28791.3 218593 0)
(-1782.4 255092 0)
(-23021.5 271972 0)
(-34987.5 279699 0)
(-41839.4 283667 0)
(-47387.5 286664 0)
(-53116.5 289573 0)
(-59027.8 292386 0)
(-65122.2 295093 0)
(-71400 297687 0)
(-77861.8 300159 0)
(-84508.2 302499 0)
(-91338.5 304700 0)
(-98351.9 306751 0)
(-105548 308642 0)
(513.8 14.3172 0)
(3239.7 924.207 0)
(11986.3 5116.58 0)
(31070 21755.3 0)
(53605.8 69890.1 0)
(56294 150773 0)
(31989.3 220888 0)
(1521.94 258826 0)
(-19862.8 276512 0)
(-31961.5 284647 0)
(-38903.1 288835 0)
(-44530.2 292006 0)
(-50345.8 295089 0)
(-56351.4 298077 0)
(-62548.2 300961 0)
(-68936.7 303732 0)
(-75517.7 306381 0)
(-82291.8 308898 0)
(-89258.6 311276 0)
(-96417.7 313503 0)
(-103768 315570 0)
(514.32 13.4416 0)
(3245.19 916.397 0)
(12032.1 5068.72 0)
(31355.9 21564 0)
(54709.2 69567.7 0)
(58705.2 151224 0)
(35293.1 223159 0)
(4969.37 262577 0)
(-16546.4 281096 0)
(-28772.4 289655 0)
(-35801.4 294073 0)
(-41505.9 297424 0)
(-47406.9 300690 0)
(-53505.9 303861 0)
(-59804.4 306929 0)
(-66303 309884 0)
(-73002.8 312719 0)
(-79904.8 315422 0)
(-87008.6 317985 0)
(-94314 320397 0)
(-101820 322648 0)
(514.837 12.5651 0)
(3250.62 908.571 0)
(12077.4 5020.6 0)
(31640.8 21369.6 0)
(55819.9 69226 0)
(61164.4 151629 0)
(38704.9 225401 0)
(8564.34 266341 0)
(-13066.6 285724 0)
(-25413.9 294723 0)
(-32527.6 299380 0)
(-38308 302919 0)
(-44292.8 306374 0)
(-50484 309736 0)
(-56883.2 312996 0)
(-63491.2 316145 0)
(-70309.6 319173 0)
(-77339.3 322070 0)
(-84580.2 324827 0)
(-92032.4 327433 0)
(-99695.5 329878 0)
(515.349 11.6877 0)
(3256 900.729 0)
(12122.4 4972.23 0)
(31924.5 21172.1 0)
(56937.6 68864.7 0)
(63671.8 151985 0)
(42226.9 227610 0)
(12311.5 270116 0)
(-9417.32 290392 0)
(-21879.4 299848 0)
(-29075 304754 0)
(-34929.2 308488 0)
(-40996.2 312139 0)
(-47278.2 315700 0)
(-53776.9 319161 0)
(-60493.6 322512 0)
(-67429.8 325742 0)
(-74586.9 328843 0)
(-81965 331804 0)
(-89564.3 334613 0)
(-97384.8 337260 0)
(515.858 10.8094 0)
(3261.32 892.873 0)
(12166.9 4923.59 0)
(32207 20971.5 0)
(58061.8 68483.5 0)
(66227.2 152292 0)
(45861.4 229784 0)
(16215.8 273897 0)
(-5592.48 295098 0)
(-18162.2 305028 0)
(-25436.4 310192 0)
(-31362.3 314129 0)
(-37509.6 317986 0)
(-43880.6 321754 0)
(-50477.5 325424 0)
(-57301.7 328985 0)
(-64355 332427 0)
(-71639.1 335740 0)
(-79154.2 338913 0)
(-86900.8 341936 0)
(-94878.9 344796 0)
(516.363 9.93031 0)
(3266.6 885.001 0)
(12211 4874.71 0)
(32488.1 20767.8 0)
(59192.1 68082.2 0)
(68830.6 152545 0)
(49610.4 231916 0)
(20281.8 277680 0)
(-1585.95 299838 0)
(-14255.4 310260 0)
(-21604.8 315692 0)
(-27599.9 319840 0)
(-33825.2 323910 0)
(-40283.4 327894 0)
(-46976.9 331782 0)
(-53907.3 335562 0)
(-61076.8 339225 0)
(-68487.1 342760 0)
(-76138.8 346156 0)
(-84032.5 349401 0)
(-92168.7 352484 0)
(516.863 9.05032 0)
(3271.82 877.114 0)
(12254.7 4825.57 0)
(32767.8 20561.1 0)
(60328.1 67660.5 0)
(71482 152744 0)
(53476.6 234004 0)
(24514.9 281462 0)
(2609.25 304609 0)
(-10151.4 315541 0)
(-17572 321252 0)
(-23633.7 325619 0)
(-29934.7 329912 0)
(-36478 334121 0)
(-43266.3 338235 0)
(-50301.4 342244 0)
(-57585.8 346138 0)
(-65121.4 349904 0)
(-72909.1 353533 0)
(-80949.8 357011 0)
(-89244 360327 0)
(517.36 8.16948 0)
(3276.99 869.213 0)
(12297.9 4776.18 0)
(33046 20351.4 0)
(61469.4 67218.2 0)
(74181.3 152886 0)
(57461.9 236041 0)
(28920 285238 0)
(6999.61 309408 0)
(-5842.94 320869 0)
(-13330.5 326869 0)
(-19455.9 331464 0)
(-25829.9 335988 0)
(-32455.9 340430 0)
(-39336.9 344781 0)
(-46475 349029 0)
(-53872.8 353162 0)
(-61532.7 357171 0)
(-69455.7 361042 0)
(-77642.9 364763 0)
(-86095.1 368324 0)
(517.852 7.28785 0)
(3282.1 861.297 0)
(12340.7 4726.55 0)
(33322.5 20138.6 0)
(62615.3 66755.1 0)
(76927.8 152969 0)
(61568.2 238024 0)
(33502.1 289003 0)
(11591.7 314230 0)
(-1322.74 326239 0)
(-8872.68 332539 0)
(-15058.4 337371 0)
(-21502.5 342135 0)
(-28208.6 346821 0)
(-35180 351418 0)
(-42419.1 355914 0)
(-49928.8 360298 0)
(-57711.6 364558 0)
(-65768.9 368682 0)
(-74101.9 372658 0)
(-82711.7 376474 0)
(518.341 6.40534 0)
(3287.16 853.366 0)
(12383 4676.68 0)
(33597.3 19922.8 0)
(63765.6 66270.9 0)
(79721.6 152990 0)
(65798 239946 0)
(38266.9 292753 0)
(16393.2 319072 0)
(3417.66 331649 0)
(-4189.59 338261 0)
(-10432.2 343338 0)
(-16943.2 348352 0)
(-23726.5 353291 0)
(-30785.8 358143 0)
(-38123.6 362898 0)
(-45743.3 367543 0)
(-53647.6 372066 0)
(-61838 376455 0)
(-70316 380696 0)
(-79082.9 384778 0)
(518.825 5.52199 0)
(3292.17 845.421 0)
(12424.8 4626.56 0)
(33870.3 19703.9 0)
(64919.5 65765.4 0)
(82562.1 152948 0)
(70153.1 241803 0)
(43219.4 296481 0)
(21411 323928 0)
(8386.13 337095 0)
(727.025 344029 0)
(-5568.63 349362 0)
(-12143 354635 0)
(-19000.4 359836 0)
(-26144.7 364955 0)
(-33578.9 369979 0)
(-41306.5 374896 0)
(-49330.5 379693 0)
(-57652.6 384357 0)
(-66274.7 388876 0)
(-75198 393235 0)
(519.305 4.63788 0)
(3297.12 837.462 0)
(12466.2 4576.21 0)
(34141.4 19482.1 0)
(66076.5 65238.4 0)
(85448.6 152839 0)
(74635.2 243588 0)
(48364.9 300182 0)
(26652.3 328794 0)
(13590.7 342571 0)
(5885.67 349841 0)
(-458.879 355438 0)
(-7092.84 360980 0)
(-14020.9 366455 0)
(-21247.1 371851 0)
(-28775 377155 0)
(-36608.2 382355 0)
(-44749.9 387437 0)
(-53202.3 392388 0)
(-61967.1 397196 0)
(-71046 401845 0)
(519.782 3.7529 0)
(3302.02 829.489 0)
(12507.2 4525.61 0)
(34410.4 19257.4 0)
(67236.2 64689.8 0)
(88380.8 152661 0)
(79246.7 245295 0)
(53709.5 303850 0)
(32125.5 333665 0)
(19040.7 348073 0)
(11296.1 355691 0)
(4907.1 361563 0)
(-1782.33 367385 0)
(-8777.24 373144 0)
(-16082.2 378828 0)
(-23700.8 384424 0)
(-31637 389918 0)
(-39894.5 395297 0)
(-48475.3 400548 0)
(-57381.6 405656 0)
(-66615.2 410607 0)
(520.254 2.86711 0)
(3306.86 821.502 0)
(12547.6 4474.79 0)
(34677.3 19029.6 0)
(68397.8 64119.3 0)
(91357.7 152412 0)
(83989 246918 0)
(59258.4 307478 0)
(37838.1 338534 0)
(24744.8 353597 0)
(16967.4 361576 0)
(10538.8 367733 0)
(3798.37 373846 0)
(-3259.42 379900 0)
(-10639.4 385883 0)
(-18345.6 391782 0)
(-26382.2 397582 0)
(-34753 403271 0)
(-43460.4 408833 0)
(-52506.7 414254 0)
(-61893.8 419521 0)
(520.722 1.98052 0)
(3311.65 813.501 0)
(12587.5 4423.73 0)
(34942 18798.9 0)
(69560.8 63526.9 0)
(94378.5 152090 0)
(88863.9 248451 0)
(65017.3 311058 0)
(43798.3 343396 0)
(30712.1 359137 0)
(22909.3 367490 0)
(16446.4 373944 0)
(9659.68 380358 0)
(2543.35 386719 0)
(-4907.86 393013 0)
(-12698.2 399227 0)
(-20832.2 405346 0)
(-29313.9 411356 0)
(-38145.9 417243 0)
(-47330.5 422990 0)
(-56869.8 428584 0)
(521.186 1.09314 0)
(3316.38 805.487 0)
(12627 4372.45 0)
(35204.3 18565.3 0)
(70724.4 62912.2 0)
(97442.3 151691 0)
(93872.8 249886 0)
(70992 314584 0)
(50014.5 348245 0)
(36952.2 364688 0)
(29132 373428 0)
(22640.4 380189 0)
(15812.5 386916 0)
(8642.31 393596 0)
(1124.06 400214 0)
(-6746.78 406756 0)
(-14975.1 413206 0)
(-23565 419551 0)
(-32519.3 425775 0)
(-41840.6 431862 0)
(-51530.9 437797 0)
(521.646 0.205017 0)
(3321.05 797.46 0)
(12665.9 4320.95 0)
(35464.1 18328.9 0)
(71888 62275.4 0)
(100548 151214 0)
(99016.9 251216 0)
(77187.9 318046 0)
(56494.9 353072 0)
(43474.8 370242 0)
(35645.7 379384 0)
(29131.2 386464 0)
(22267.8 393517 0)
(15048.7 400528 0)
(7467.83 407482 0)
(-479.633 414364 0)
(-8798.82 421160 0)
(-17494.2 427853 0)
(-26568.6 434428 0)
(-36024.7 440868 0)
(-45864.7 447158 0)
(522.102 -0.683933 0)
(3325.67 789.419 0)
(12704.4 4269.22 0)
(35721.5 18089.5 0)
(73050.9 61616.1 0)
(103694 150657 0)
(104298 252433 0)
(83611.7 321437 0)
(63249.2 357870 0)
(50290.7 375793 0)
(42461.8 385353 0)
(35931.1 392764 0)
(29038 400155 0)
(21775.3 407510 0)
(14136.6 414814 0)
(6116.64 422051 0)
(-2289.93 429205 0)
(-11087.8 436260 0)
(-20279.9 443200 0)
(-29869.1 450007 0)
(-39857.4 456666 0)
(522.554 -1.57366 0)
(3330.24 781.365 0)
(12742.3 4217.27 0)
(35976.1 17847.3 0)
(74212.4 60934.3 0)
(106879 150016 0)
(109717 253529 0)
(90268.8 324747 0)
(70286.4 362632 0)
(57410.4 381335 0)
(49591.7 391327 0)
(43051.6 399083 0)
(36135.1 406824 0)
(28834.5 414537 0)
(21142.9 422204 0)
(13054.9 429810 0)
(4564.64 437337 0)
(-4332.66 444769 0)
(-13640.1 452089 0)
(-23360.5 459278 0)
(-33495.8 466321 0)
(523.001 -2.46409 0)
(3334.75 773.299 0)
(12779.7 4165.12 0)
(36228 17602.3 0)
(75371.6 60230 0)
(110102 149289 0)
(115274 254497 0)
(97164.8 327966 0)
(77615.5 367349 0)
(64844.5 386859 0)
(57046.5 397300 0)
(50504.4 405412 0)
(43571.3 413519 0)
(36238.9 421603 0)
(28500 429649 0)
(20348.4 437638 0)
(11778.4 445554 0)
(2784.78 453378 0)
(-6635.52 461092 0)
(-16485.3 468679 0)
(-26766.4 476120 0)
(523.445 -3.35534 0)
(3339.2 765.22 0)
(12816.5 4112.74 0)
(36477.1 17354.5 0)
(76528 59503 0)
(113361 148474 0)
(120971 255326 0)
(104307 331083 0)
(85247.1 372010 0)
(72605.6 392358 0)
(64839.6 403265 0)
(58303.6 411748 0)
(51361.1 420233 0)
(44003.4 428705 0)
(36222.7 437144 0)
(28012.5 445532 0)
(19366.7 453852 0)
(10280 462084 0)