/*--------------------------------*- C++ -*----------------------------------*\
  =========                 |
  \\      /  F ield         | OpenFOAM: The Open Source CFD Toolbox
   \\    /   O peration     | Website:  https://openfoam.org
    \\  /    A nd           | Version:  7
     \\/     M anipulation  |
\*---------------------------------------------------------------------------*/
FoamFile
{
    version     2.0;
    format      ascii;
    class       volVectorField;
    location    "0/insulator";
    object      EIrho;
}
// * * * * * * * * * * * * * * * * * * * * * * * * * * * * * * * * * * * * * //

dimensions      [1 1 -3 0 0 -1 0];

internalField   nonuniform List<vector> 
98782
(
(-9.89496 2.73539 0)
(-28.8358 5.17827 0)
(-39.1777 1.53624 0)
(-38.9434 -3.75569 0)
(-36.1037 -6.65601 0)
(-34.0327 -8.01389 0)
(-32.8747 -8.64397 0)
(-32.2799 -8.94048 0)
(-31.9846 -9.08167 0)
(-31.8402 -9.14936 0)
(-31.7628 -9.18524 0)
(-31.7025 -9.21303 0)
(-31.6421 -9.24075 0)
(-31.5814 -9.2684 0)
(-31.5206 -9.29599 0)
(-31.4596 -9.32351 0)
(-31.3984 -9.35096 0)
(-31.3371 -9.37835 0)
(-31.2755 -9.40567 0)
(-31.2138 -9.43292 0)
(-31.1519 -9.4601 0)
(-9.11698 7.2561 0)
(-30.4596 15.314 0)
(-48.8059 8.21181 0)
(-54.371 -8.47687 0)
(-52.2558 -18.9279 0)
(-49.6234 -24.0245 0)
(-47.959 -26.4226 0)
(-47.0646 -27.5572 0)
(-46.6119 -28.0986 0)
(-46.3884 -28.3584 0)
(-46.2682 -28.4963 0)
(-46.1743 -28.603 0)
(-46.0799 -28.7095 0)
(-45.985 -28.8158 0)
(-45.8897 -28.9218 0)
(-45.794 -29.0277 0)
(-45.6977 -29.1332 0)
(-45.601 -29.2386 0)
(-45.5038 -29.3437 0)
(-45.4061 -29.4486 0)
(-45.308 -29.5533 0)
(-7.85027 10.1304 0)
(-30.8093 24.6114 0)
(-61.4465 22.5874 0)
(-80.5195 -5.07655 0)
(-82.8873 -27.5447 0)
(-80.3168 -39.3815 0)
(-78.0501 -45.1041 0)
(-76.7087 -47.8403 0)
(-76.0032 -49.1519 0)
(-75.6491 -49.7826 0)
(-75.457 -50.1175 0)
(-75.3062 -50.377 0)
(-75.1541 -50.6361 0)
(-75.0007 -50.8948 0)
(-74.846 -51.1531 0)
(-74.6899 -51.411 0)
(-74.5325 -51.6684 0)
(-74.3738 -51.9255 0)
(-74.2138 -52.1821 0)
(-74.0525 -52.4382 0)
(-73.8898 -52.6939 0)
(-6.43347 11.8515 0)
(-28.9173 32.2171 0)
(-72.1177 43.2629 0)
(-112.832 11.1237 0)
(-127.847 -27.9256 0)
(-128.169 -50.9597 0)
(-126.023 -62.5424 0)
(-124.398 -68.1679 0)
(-123.473 -70.8828 0)
(-122.993 -72.1923 0)
(-122.728 -72.8886 0)
(-122.519 -73.4287 0)
(-122.306 -73.9684 0)
(-122.09 -74.5077 0)
(-121.87 -75.0467 0)
(-121.648 -75.5853 0)
(-121.422 -76.1234 0)
(-121.192 -76.6611 0)
(-120.96 -77.1983 0)
(-120.724 -77.7351 0)
(-120.484 -78.2712 0)
(-5.13173 12.8409 0)
(-25.363 37.6592 0)
(-77.5692 65.7769 0)
(-144.791 41.5697 0)
(-183.187 -14.7069 0)
(-192.132 -53.4216 0)
(-192.163 -73.8993 0)
(-190.989 -84.0445 0)
(-190.129 -88.9828 0)
(-189.644 -91.3742 0)
(-189.367 -92.6481 0)
(-189.142 -93.6372 0)
(-188.911 -94.6268 0)
(-188.673 -95.6169 0)
(-188.427 -96.6074 0)
(-188.175 -97.5982 0)
(-187.915 -98.5893 0)
(-187.648 -99.5806 0)
(-187.374 -100.572 0)
(-187.093 -101.564 0)
(-186.805 -102.555 0)
(-4.06375 13.3984 0)
(-21.2219 41.1725 0)
(-77.3619 85.9522 0)
(-170.543 82.1297 0)
(-241.131 14.4331 0)
(-266.417 -42.5915 0)
(-271.962 -74.5981 0)
(-272.597 -90.8213 0)
(-272.38 -98.7964 0)
(-272.148 -102.676 0)
(-271.99 -104.747 0)
(-271.851 -106.357 0)
(-271.699 -107.97 0)
(-271.534 -109.585 0)
(-271.356 -111.204 0)
(-271.164 -112.825 0)
(-270.96 -114.448 0)
(-270.742 -116.074 0)
(-270.511 -117.702 0)
(-270.267 -119.332 0)
(-270.01 -120.964 0)
(-3.24267 13.7121 0)
(-17.3107 43.2924 0)
(-73.1728 101.798 0)
(-187.374 125.527 0)
(-293.781 56.8906 0)
(-342.567 -18.1688 0)
(-357.3 -63.0432 0)
(-361.388 -86.3338 0)
(-362.557 -97.902 0)
(-362.923 -103.556 0)
(-363.062 -106.581 0)
(-363.144 -108.936 0)
(-363.206 -111.299 0)
(-363.247 -113.669 0)
(-363.267 -116.047 0)
(-363.266 -118.431 0)
(-363.244 -120.822 0)
(-363.201 -123.22 0)
(-363.136 -125.625 0)
(-363.049 -128.035 0)
(-362.941 -130.452 0)
(-2.6341 13.8905 0)
(-14.0165 44.5236 0)
(-67.1717 113.253 0)
(-195.878 165.494 0)
(-336.534 106.442 0)
(-412.896 16.024 0)
(-439.473 -41.4361 0)
(-448.357 -71.8864 0)
(-451.569 -87.1524 0)
(-452.852 -94.647 0)
(-453.459 -98.6653 0)
(-453.894 -101.798 0)
(-454.301 -104.945 0)
(-454.68 -108.107 0)
(-455.029 -111.282 0)
(-455.35 -114.471 0)
(-455.641 -117.673 0)
(-455.903 -120.889 0)
(-456.135 -124.118 0)
(-456.337 -127.359 0)
(-456.508 -130.613 0)
(-2.1921 13.9941 0)
(-11.4206 45.2271 0)
(-60.9819 121.16 0)
(-198.414 198.78 0)
(-368.576 156.326 0)
(-472.811 54.205 0)
(-512.038 -14.4598 0)
(-526.203 -51.3377 0)
(-531.757 -69.936 0)
(-534.119 -79.0942 0)
(-535.287 -84.0118 0)
(-536.151 -87.8496 0)
(-536.981 -91.7088 0)
(-537.778 -95.5896 0)
(-538.54 -99.4916 0)
(-539.268 -103.414 0)
(-539.961 -107.358 0)
(-540.619 -111.323 0)
(-541.241 -115.309 0)
(-541.827 -119.315 0)
(-542.377 -123.342 0)
(-1.87462 14.0558 0)
(-9.45437 45.6291 0)
(-55.4724 126.501 0)
(-197.508 224.761 0)
(-391.397 201.613 0)
(-521.058 91.2644 0)
(-572.115 12.971 0)
(-591.057 -29.222 0)
(-598.758 -50.5096 0)
(-602.133 -60.9966 0)
(-603.835 -66.6296 0)
(-605.111 -71.0267 0)
(-606.352 -75.4498 0)
(-607.558 -79.899 0)
(-608.729 -84.3743 0)
(-609.865 -88.8756 0)
(-610.965 -93.4033 0)
(-612.03 -97.9578 0)
(-613.058 -102.539 0)
(-614.05 -107.147 0)
(-615.005 -111.782 0)
(-1.64795 14.0935 0)
(-8.00057 45.8615 0)
(-50.9544 130.09 0)
(-195.063 244.24 0)
(-407.187 239.832 0)
(-558.53 124.08 0)
(-619.763 37.4449 0)
(-642.391 -9.02294 0)
(-651.699 -32.3431 0)
(-655.837 -43.8019 0)
(-657.946 -49.9498 0)
(-659.539 -54.7456 0)
(-661.099 -59.5666 0)
(-662.626 -64.4133 0)
(-664.121 -69.2859 0)
(-665.584 -74.1846 0)
(-667.016 -79.1102 0)
(-668.416 -84.0636 0)
(-669.784 -89.045 0)
(-671.122 -94.0553 0)
(-672.429 -99.0952 0)
(-1.48667 14.1173 0)
(-6.94157 45.9984 0)
(-47.4291 132.508 0)
(-192.233 258.495 0)
(-417.96 270.465 0)
(-586.964 151.403 0)
(-656.541 57.4934 0)
(-681.71 7.5462 0)
(-692.01 -17.2914 0)
(-696.609 -29.4358 0)
(-698.963 -35.936 0)
(-700.75 -40.9989 0)
(-702.506 -46.0811 0)
(-704.234 -51.1829 0)
(-705.933 -56.305 0)
(-707.606 -61.4476 0)
(-709.254 -66.612 0)
(-710.877 -71.7994 0)
(-712.477 -77.0106 0)
(-714.054 -82.247 0)
(-715.611 -87.51 0)
(-1.37213 14.1326 0)
(-6.17738 46.0809 0)
(-44.7639 134.148 0)
(-189.598 268.781 0)
(-425.276 294.138 0)
(-608.19 173.194 0)
(-684.406 73.0545 0)
(-711.215 20.2335 0)
(-722.015 -5.76103 0)
(-726.825 -18.3945 0)
(-729.291 -25.1358 0)
(-731.165 -30.3762 0)
(-733.01 -35.6261 0)
(-734.83 -40.886 0)
(-736.626 -46.1563 0)
(-738.401 -51.4377 0)
(-740.157 -56.7315 0)
(-741.895 -62.0392 0)
(-743.62 -67.362 0)
(-745.331 -72.7018 0)
(-747.032 -78.0604 0)
(-1.29086 14.1427 0)
(-5.62926 46.132 0)
(-42.7902 135.271 0)
(-187.385 276.145 0)
(-430.253 311.969 0)
(-623.84 190.04 0)
(-705.218 84.7403 0)
(-733.056 29.555 0)
(-744.043 2.65942 0)
(-748.902 -10.3337 0)
(-751.39 -17.2452 0)
(-753.28 -22.6068 0)
(-755.143 -27.9669 0)
(-756.983 -33.3256 0)
(-758.801 -38.6836 0)
(-760.602 -44.0412 0)
(-762.39 -49.4 0)
(-764.167 -54.7615 0)
(-765.936 -60.1273 0)
(-767.702 -65.4995 0)
(-769.467 -70.8803 0)
(-1.23323 14.1495 0)
(-5.23766 46.1645 0)
(-41.3485 136.044 0)
(-185.632 281.392 0)
(-433.655 325.157 0)
(-635.263 202.764 0)
(-720.579 93.3409 0)
(-749.062 36.2485 0)
(-760.066 8.64813 0)
(-764.892 -4.61555 0)
(-767.354 -11.6509 0)
(-769.224 -17.0984 0)
(-771.066 -22.5336 0)
(-772.885 -27.9567 0)
(-774.686 -33.3679 0)
(-776.471 -38.7677 0)
(-778.247 -44.1574 0)
(-780.017 -49.5387 0)
(-781.785 -54.9132 0)
(-783.557 -60.2832 0)
(-785.335 -65.6512 0)
(-1.19239 14.1541 0)
(-4.95864 46.1855 0)
(-40.3052 136.581 0)
(-184.293 285.122 0)
(-435.994 334.789 0)
(-643.538 212.209 0)
(-731.806 99.5918 0)
(-760.699 40.9999 0)
(-771.646 12.8536 0)
(-776.404 -0.61471 0)
(-778.823 -7.74191 0)
(-780.657 -13.2516 0)
(-782.463 -18.7399 0)
(-784.247 -24.2065 0)
(-786.012 -29.6517 0)
(-787.764 -35.0756 0)
(-789.509 -40.4795 0)
(-791.251 -45.865 0)
(-792.997 -51.2338 0)
(-794.751 -56.5881 0)
(-796.518 -61.9308 0)
(-1.16345 14.1572 0)
(-4.76019 46.1995 0)
(-39.5551 136.956 0)
(-183.294 287.77 0)
(-437.612 341.76 0)
(-649.496 219.13 0)
(-739.947 104.098 0)
(-769.104 44.3558 0)
(-779.973 15.7933 0)
(-784.657 2.17126 0)
(-787.031 -5.02407 0)
(-788.828 -10.5794 0)
(-790.596 -16.1058 0)
(-792.341 -21.6029 0)
(-794.068 -27.0705 0)
(-795.783 -32.5089 0)
(-797.493 -37.9191 0)
(-799.202 -43.3028 0)
(-800.918 -48.6614 0)
(-802.645 -53.9972 0)
(-804.391 -59.3131 0)
(-1.14294 14.1594 0)
(-4.61922 46.2089 0)
(-39.0182 137.218 0)
(-182.561 289.648 0)
(-438.738 346.774 0)
(-653.767 224.153 0)
(-745.814 107.33 0)
(-775.146 46.7222 0)
(-785.936 17.8476 0)
(-790.556 4.1114 0)
(-792.889 -3.13406 0)
(-794.652 -8.72273 0)
(-796.387 -14.2767 0)
(-798.097 -19.7954 0)
(-799.79 -25.2786 0)
(-801.472 -30.7261 0)
(-803.149 -36.1391 0)
(-804.827 -41.519 0)
(-806.514 -46.8672 0)
(-808.215 -52.1862 0)
(-809.938 -57.4786 0)
(-1.12841 14.161 0)
(-4.51915 46.2153 0)
(-38.6351 137.403 0)
(-182.028 290.979 0)
(-439.525 350.364 0)
(-656.819 227.775 0)
(-750.023 109.639 0)
(-779.473 48.391 0)
(-790.196 19.2854 0)
(-794.761 5.4655 0)
(-797.061 -1.81636 0)
(-798.798 -7.42924 0)
(-800.504 -13.0032 0)
(-802.186 -18.5374 0)
(-803.851 -24.0314 0)
(-805.505 -29.485 0)
(-807.154 -34.8992 0)
(-808.806 -40.2753 0)
(-810.468 -45.6147 0)
(-812.147 -50.9198 0)
(-813.849 -56.1933 0)
(-1.11811 14.162 0)
(-4.44817 46.2197 0)
(-38.3622 137.532 0)
(-181.644 291.922 0)
(-440.077 352.927 0)
(-658.994 230.373 0)
(-753.031 111.284 0)
(-782.561 49.5685 0)
(-793.231 20.294 0)
(-797.754 6.41315 0)
(-800.029 -0.89491 0)
(-801.744 -6.52532 0)
(-803.428 -12.1137 0)
(-805.089 -17.659 0)
(-806.731 -23.1608 0)
(-808.363 -28.6185 0)
(-809.991 -34.0332 0)
(-811.622 -39.406 0)
(-813.264 -44.7385 0)
(-814.924 -50.0327 0)
(-816.61 -55.2917 0)
(-1.10464 14.1634 0)
(-4.35518 46.2253 0)
(-38.0039 137.701 0)
(-181.135 293.157 0)
(-440.793 356.311 0)
(-661.853 233.824 0)
(-756.995 113.453 0)
(-786.626 51.1009 0)
(-797.22 21.5961 0)
(-801.684 7.63176 0)
(-803.923 0.28748 0)
(-805.609 -5.36681 0)
(-807.263 -10.9747 0)
(-808.893 -16.5348 0)
(-810.504 -22.0465 0)
(-812.105 -27.5094 0)
(-813.703 -32.924 0)
(-815.304 -38.2917 0)
(-816.918 -43.6137 0)
(-818.552 -48.8922 0)
(-820.213 -54.1301 0)
(-1.08622 14.1653 0)
(-4.22784 46.2327 0)
(-37.5103 137.93 0)
(-180.42 294.846 0)
(-441.757 360.972 0)
(-665.797 238.604 0)
(-762.489 116.436 0)
(-792.251 53.1831 0)
(-802.724 23.3516 0)
(-807.096 9.26848 0)
(-809.279 1.87254 0)
(-810.919 -3.81558 0)
(-812.526 -9.4508 0)
(-814.107 -15.0316 0)
(-815.67 -20.5572 0)
(-817.222 -26.0267 0)
(-818.771 -31.4406 0)
(-820.326 -36.8002 0)
(-821.894 -42.1065 0)
(-823.485 -47.3616 0)
(-825.106 -52.5684 0)
(-1.0678 14.1671 0)
(-4.10023 46.2398 0)
(-37.0129 138.157 0)
(-179.687 296.536 0)
(-442.703 365.685 0)
(-669.78 243.474 0)
(-768.066 119.444 0)
(-797.948 55.2467 0)
(-808.283 25.0711 0)
(-812.55 10.863 0)
(-814.67 3.41286 0)
(-816.258 -2.31078 0)
(-817.811 -7.97468 0)
(-819.338 -13.5771 0)
(-820.845 -19.1168 0)
(-822.341 -24.5928 0)
(-823.835 -30.0054 0)
(-825.335 -35.3555 0)
(-826.851 -40.6442 0)
(-828.391 -45.8734 0)
(-829.965 -51.046 0)
(-1.04938 14.1689 0)
(-3.97237 46.2466 0)
(-36.5117 138.382 0)
(-178.935 298.226 0)
(-443.632 370.449 0)
(-673.802 248.436 0)
(-773.727 122.479 0)
(-803.722 57.2886 0)
(-813.899 26.7498 0)
(-818.049 12.4096 0)
(-820.098 4.90224 0)
(-821.628 -0.858914 0)
(-823.121 -6.55305 0)
(-824.585 -12.1781 0)
(-826.029 -17.7325 0)
(-827.462 -23.2151 0)
(-828.893 -28.6258 0)
(-830.33 -33.9654 0)
(-831.785 -39.2347 0)
(-833.267 -44.4355 0)
(-834.785 -49.5706 0)
(-1.03096 14.1707 0)
(-3.84424 46.253 0)
(-36.0065 138.605 0)
(-178.163 299.916 0)
(-444.543 375.265 0)
(-677.865 253.493 0)
(-779.477 125.54 0)
(-809.578 59.306 0)
(-819.578 28.383 0)
(-823.597 13.9028 0)
(-825.566 6.3347 0)
(-827.03 0.533755 0)
(-828.456 -5.19246 0)
(-829.851 -10.8415 0)
(-831.224 -16.4114 0)
(-832.586 -21.9008 0)
(-833.945 -27.3093 0)
(-835.312 -32.6373 0)
(-836.697 -37.8856 0)
(-838.111 -43.0557 0)
(-839.564 -48.1502 0)
(-1.01253 14.1724 0)
(-3.71585 46.2592 0)
(-35.4975 138.826 0)
(-177.372 301.607 0)
(-445.436 380.133 0)
(-681.969 258.648 0)
(-785.321 128.628 0)
(-815.519 61.2958 0)
(-825.321 29.9656 0)
(-829.195 15.3365 0)
(-831.076 7.7037 0)
(-832.468 1.86032 0)
(-833.818 -3.90014 0)
(-835.136 -9.57481 0)
(-836.43 -15.1614 0)
(-837.711 -20.6581 0)
(-838.99 -26.0642 0)
(-840.277 -31.3799 0)
(-841.583 -36.6055 0)
(-842.92 -41.7426 0)
(-844.299 -46.7936 0)
(-0.994099 14.1741 0)
(-3.58721 46.265 0)
(-34.9846 139.045 0)
(-176.561 303.297 0)
(-446.308 385.054 0)
(-686.117 263.904 0)
(-791.261 131.744 0)
(-821.551 63.2546 0)
(-831.133 31.4921 0)
(-834.847 16.7043 0)
(-836.631 9.00237 0)
(-837.943 3.11354 0)
(-839.21 -2.68369 0)
(-840.441 -8.38602 0)
(-841.648 -13.9907 0)
(-842.839 -19.4955 0)
(-844.028 -24.8994 0)
(-845.225 -30.2021 0)
(-846.442 -35.4038 0)
(-847.692 -40.5058 0)
(-848.987 -45.5102 0)
(-0.975667 14.1758 0)
(-3.45831 46.2705 0)
(-34.4678 139.261 0)
(-175.729 304.988 0)
(-447.16 390.028 0)
(-690.308 269.264 0)
(-797.303 134.888 0)
(-827.677 65.1791 0)
(-837.019 32.9571 0)
(-840.558 17.9996 0)
(-842.235 10.2235 0)
(-843.458 4.28577 0)
(-844.633 -1.55119 0)
(-845.769 -7.28355 0)
(-846.878 -12.9081 0)
(-847.971 -18.4221 0)
(-849.059 -23.8242 0)
(-850.156 -29.1137 0)
(-851.273 -34.2904 0)
(-852.424 -39.3552 0)
(-853.623 -44.3101 0)
(-0.957234 14.1775 0)
(-3.32916 46.2756 0)
(-33.9471 139.476 0)
(-174.877 306.678 0)
(-447.991 395.055 0)
(-694.544 274.733 0)
(-803.45 138.062 0)
(-833.905 67.066 0)
(-842.983 34.3546 0)
(-846.33 19.2152 0)
(-847.89 11.3594 0)
(-849.016 5.36883 0)
(-850.09 -0.511246 0)
(-851.122 -6.27647 0)
(-852.123 -11.9231 0)
(-853.106 -17.4479 0)
(-854.083 -22.8489 0)
(-855.067 -28.1251 0)
(-856.073 -33.2759 0)
(-857.115 -38.3018 0)
(-858.206 -43.2046 0)
(-0.938798 14.1791 0)
(-3.19976 46.2804 0)
(-33.4226 139.688 0)
(-174.004 308.367 0)
(-448.8 400.137 0)
(-698.826 280.313 0)
(-809.709 141.265 0)
(-840.24 68.9119 0)
(-849.031 35.6787 0)
(-852.169 20.344 0)
(-853.601 12.402 0)
(-854.621 6.35427 0)
(-855.584 0.427193 0)
(-856.501 -5.37418 0)
(-857.384 -11.0455 0)
(-858.246 -16.583 0)
(-859.1 -21.9841 0)
(-859.961 -27.2474 0)
(-860.843 -32.3717 0)
(-861.761 -37.3573 0)
(-862.731 -42.2054 0)
(-0.92036 14.1807 0)
(-3.07011 46.2849 0)
(-32.8942 139.898 0)
(-173.11 310.056 0)
(-449.586 405.272 0)
(-703.155 286.008 0)
(-816.083 144.501 0)
(-846.689 70.7133 0)
(-855.17 36.923 0)
(-858.08 21.3781 0)
(-859.373 13.343 0)
(-860.278 7.233 0)
(-861.12 1.25449 0)
(-861.911 -4.58687 0)
(-862.664 -10.2861 0)
(-863.393 -15.8386 0)
(-864.112 -21.2415 0)
(-864.836 -26.4926 0)
(-865.581 -31.5903 0)
(-866.363 -36.5343 0)
(-867.197 -41.3255 0)
(-0.901921 14.1822 0)
(-2.94022 46.2891 0)
(-32.3619 140.106 0)
(-172.195 311.743 0)
(-450.348 410.463 0)
(-707.533 291.821 0)
(-822.579 147.769 0)
(-853.258 72.4666 0)
(-861.404 38.0808 0)
(-864.068 22.3094 0)
(-865.21 14.1732 0)
(-865.989 7.99545 0)
(-866.7 1.96046 0)
(-867.354 -3.92529 0)
(-867.966 -9.65607 0)
(-868.549 -15.2267 0)
(-869.12 -20.6334 0)
(-869.693 -25.8735 0)
(-870.286 -30.9448 0)
(-870.916 -35.8464 0)
(-871.601 -40.5787 0)
(-0.883481 14.1837 0)
(-2.81009 46.293 0)
(-31.8257 140.311 0)
(-171.258 313.43 0)
(-451.085 415.708 0)
(-711.961 297.758 0)
(-829.202 151.073 0)
(-859.956 74.1683 0)
(-867.741 39.1453 0)
(-870.141 23.1295 0)
(-871.12 14.8836 0)
(-871.763 8.63167 0)
(-872.33 2.5345 0)
(-872.835 -3.40069 0)
(-873.292 -9.16739 0)
(-873.717 -14.7596 0)
(-874.125 -20.1728 0)
(-874.533 -25.4037 0)
(-874.96 -30.4492 0)
(-875.422 -35.308 0)
(-875.941 -39.98 0)
(-0.865038 14.1852 0)
(-2.67971 46.2965 0)
(-31.2856 140.514 0)
(-170.299 315.115 0)
(-451.796 421.009 0)
(-716.439 303.823 0)
(-835.958 154.413 0)
(-866.79 75.8148 0)
(-874.19 40.1096 0)
(-876.305 23.8295 0)
(-877.107 15.4641 0)
(-877.603 9.13111 0)
(-878.015 2.96533 0)
(-878.359 -3.02508 0)
(-878.648 -8.83272 0)
(-878.9 -14.4507 0)
(-879.13 -19.8738 0)
(-879.358 -25.0977 0)
(-879.601 -30.1188 0)
(-879.88 -34.9349 0)
(-880.214 -39.5453 0)
(-0.846595 14.1867 0)
(-2.5491 46.2997 0)
(-30.7416 140.715 0)
(-169.318 316.798 0)
(-452.48 426.365 0)
(-720.97 310.018 0)
(-842.854 157.793 0)
(-873.769 77.4027 0)
(-880.758 40.9663 0)
(-882.567 24.4001 0)
(-883.18 15.9046 0)
(-883.517 9.48271 0)
(-883.762 3.2411 0)
(-883.93 -2.81108 0)
(-884.038 -8.66545 0)
(-884.101 -14.3142 0)
(-884.138 -19.7512 0)
(-884.168 -24.9712 0)
(-884.211 -29.9696 0)
(-884.287 -34.7437 0)
(-884.419 -39.2918 0)
(-0.828151 14.1881 0)
(-2.41825 46.3025 0)
(-30.1937 140.914 0)
(-168.315 318.48 0)
(-453.135 431.778 0)
(-725.554 316.351 0)
(-849.895 161.214 0)
(-880.903 78.9283 0)
(-887.455 41.7078 0)
(-888.937 24.8319 0)
(-889.346 16.1944 0)
(-889.512 9.67491 0)
(-889.577 3.34939 0)
(-889.556 -2.77196 0)
(-889.466 -8.67971 0)
(-889.326 -14.365 0)
(-889.153 -19.8206 0)
(-888.967 -25.0404 0)
(-888.791 -30.0189 0)
(-888.646 -34.7522 0)
(-888.556 -39.2381 0)
(-0.809707 14.1895 0)
(-2.28718 46.305 0)
(-29.642 141.11 0)
(-167.288 320.159 0)
(-453.762 437.246 0)
(-730.192 322.823 0)
(-857.09 164.68 0)
(-888.2 80.3883 0)
(-894.291 42.3265 0)
(-895.423 25.1149 0)
(-895.614 16.3223 0)
(-895.596 9.69562 0)
(-895.467 3.27717 0)
(-895.243 -2.92169 0)
(-894.94 -8.89037 0)
(-894.579 -14.6189 0)
(-894.178 -20.0988 0)
(-893.759 -25.323 0)
(-893.344 -30.2849 0)
(-892.957 -34.9796 0)
(-892.623 -39.4038 0)
(-0.791262 14.1909 0)
(-2.15587 46.3072 0)
(-29.0864 141.303 0)
(-166.239 321.836 0)
(-454.358 442.771 0)
(-734.886 329.442 0)
(-864.444 168.195 0)
(-895.673 81.7793 0)
(-901.276 42.8146 0)
(-902.037 25.2387 0)
(-901.994 16.2768 0)
(-901.78 9.53224 0)
(-901.442 3.0108 0)
(-900.999 -3.27495 0)
(-900.467 -9.31313 0)
(-899.867 -15.0925 0)
(-899.219 -20.6035 0)
(-898.546 -25.8376 0)
(-897.872 -30.7871 0)
(-897.222 -35.446 0)
(-896.621 -39.81 0)
(-0.772816 14.1922 0)
(-2.02433 46.3091 0)
(-28.5269 141.495 0)
(-165.166 323.51 0)
(-454.922 448.353 0)
(-739.637 336.212 0)
(-871.967 171.761 0)
(-903.332 83.0983 0)
(-908.422 43.1639 0)
(-908.788 25.1929 0)
(-908.497 16.0458 0)
(-908.072 9.17165 0)
(-907.512 2.53604 0)
(-906.833 -3.84707 0)
(-906.054 -9.96445 0)
(-905.197 -15.8035 0)
(-904.283 -21.3532 0)
(-903.336 -26.6038 0)
(-902.38 -31.5462 0)
(-901.443 -36.1733 0)
(-900.551 -40.4794 0)
(-0.754371 14.1935 0)
(-1.89257 46.3106 0)
(-27.9635 141.684 0)
(-164.069 325.182 0)
(-455.453 453.992 0)
(-744.446 343.138 0)
(-879.665 175.383 0)
(-911.19 84.3419 0)
(-915.742 43.3664 0)
(-915.69 24.9664 0)
(-915.134 15.6169 0)
(-914.485 8.60022 0)
(-913.685 1.83808 0)
(-912.754 -4.65409 0)
(-911.711 -10.8615 0)
(-910.577 -16.7702 0)
(-909.376 -22.3675 0)
(-908.132 -27.6424 0)
(-906.872 -32.5842 0)
(-905.623 -37.1843 0)
(-904.415 -41.4358 0)
(-0.735925 14.1948 0)
(-1.76059 46.3118 0)
(-27.3962 141.87 0)
(-162.948 326.85 0)
(-455.949 459.688 0)
(-749.314 350.227 0)
(-887.548 179.067 0)
(-919.26 85.5077 0)
(-923.25 43.4137 0)
(-922.756 24.5481 0)
(-921.918 14.9772 0)
(-921.03 7.80375 0)
(-919.976 0.901367 0)
(-918.775 -5.71287 0)
(-917.449 -12.0226 0)
(-916.018 -18.0122 0)
(-914.508 -23.6674 0)
(-912.943 -28.9755 0)
(-911.353 -33.9243 0)
(-909.767 -38.5036 0)
(-908.215 -42.7049 0)
(-0.71748 14.196 0)
(-1.62839 46.3126 0)
(-26.8251 142.054 0)
(-161.803 328.515 0)
(-456.41 465.442 0)
(-754.243 357.483 0)
(-895.623 182.816 0)
(-927.556 86.593 0)
(-930.961 43.2975 0)
(-930 23.9264 0)
(-928.865 14.1135 0)
(-927.722 6.76763 0)
(-926.397 -0.290084 0)
(-924.908 -7.04085 0)
(-923.278 -13.4666 0)
(-921.529 -19.5497 0)
(-919.687 -25.2745 0)
(-917.778 -30.6262 0)
(-915.832 -35.5911 0)
(-913.88 -40.157 0)
(-911.956 -44.314 0)
(-0.699035 14.1972 0)
(-1.49598 46.3132 0)
(-26.2502 142.235 0)
(-160.633 330.176 0)
(-456.833 471.253 0)
(-759.233 364.912 0)
(-903.9 186.638 0)
(-936.092 87.5955 0)
(-938.89 43.0096 0)
(-937.438 23.0897 0)
(-935.987 13.0122 0)
(-934.575 5.47683 0)
(-932.962 -1.75284 0)
(-931.167 -8.65611 0)
(-929.212 -15.213 0)
(-927.123 -21.4041 0)
(-924.924 -27.2116 0)
(-922.645 -32.619 0)
(-920.316 -37.6104 0)
(-917.97 -42.172 0)
(-915.641 -46.2918 0)
(-0.68059 14.1984 0)
(-1.36335 46.3133 0)
(-25.6713 142.414 0)
(-159.439 331.834 0)
(-457.217 477.122 0)
(-764.285 372.522 0)
(-912.388 190.539 0)
(-944.885 88.5135 0)
(-947.056 42.5415 0)
(-945.089 22.026 0)
(-943.305 11.6593 0)
(-941.607 3.91565 0)
(-939.688 -3.50425 0)
(-937.567 -10.5777 0)
(-935.267 -17.2827 0)
(-932.813 -23.5977 0)
(-930.234 -29.5029 0)
(-927.557 -34.9796 0)
(-924.816 -40.0098 0)
(-922.044 -44.5777 0)
(-919.279 -48.6691 0)
(-0.662146 14.1995 0)
(-1.23051 46.3132 0)
(-25.0886 142.59 0)
(-158.219 333.487 0)
(-457.56 483.049 0)
(-769.401 380.319 0)
(-921.098 194.525 0)
(-953.952 89.3455 0)
(-955.477 41.885 0)
(-952.97 20.7232 0)
(-950.835 10.0406 0)
(-948.836 2.06823 0)
(-946.592 -5.56195 0)
(-944.124 -12.8251 0)
(-941.457 -19.6969 0)
(-938.616 -26.1537 0)
(-935.629 -32.1734 0)
(-932.526 -37.7349 0)
(-929.343 -42.8181 0)
(-926.113 -47.4047 0)
(-922.877 -51.4783 0)
(-0.643702 14.2006 0)
(-1.09746 46.3127 0)
(-24.5021 142.764 0)
(-156.973 335.136 0)
(-457.861 489.033 0)
(-774.58 388.308 0)
(-930.038 198.606 0)
(-963.31 90.0906 0)
(-964.173 41.032 0)
(-961.101 19.1691 0)
(-958.598 8.14166 0)
(-956.28 -0.0818099 0)
(-953.694 -7.9442 0)
(-950.86 -15.4184 0)
(-947.802 -22.4778 0)
(-944.547 -29.0963 0)
(-941.125 -35.2492 0)
(-937.568 -40.9132 0)
(-933.91 -46.0654 0)
(-930.189 -50.6852 0)
(-926.445 -54.7537 0)
(-0.625259 14.2017 0)
(-0.964205 46.3118 0)
(-23.9117 142.935 0)
(-155.701 336.78 0)
(-458.118 495.076 0)
(-779.824 396.497 0)
(-939.221 202.79 0)
(-972.979 90.7485 0)
(-973.166 39.9746 0)
(-969.506 17.3516 0)
(-966.616 5.94772 0)
(-963.963 -2.55107 0)
(-961.015 -10.6696 0)
(-957.792 -18.3784 0)
(-954.321 -25.6483 0)
(-950.627 -32.4504 0)
(-946.742 -38.7577 0)
(-942.698 -44.5439 0)
(-938.533 -49.7836 0)
(-934.284 -54.4532 0)
(-929.995 -58.5313 0)
(-0.606819 14.2028 0)
(-0.830757 46.3107 0)
(-23.3175 143.103 0)
(-154.404 338.42 0)
(-458.329 501.176 0)
(-785.133 404.894 0)
(-948.655 207.085 0)
(-982.977 91.3194 0)
(-982.479 38.7053 0)
(-978.208 15.2585 0)
(-974.912 3.44414 0)
(-971.907 -5.35634 0)
(-968.578 -13.7572 0)
(-964.946 -21.7263 0)
(-961.036 -29.2318 0)
(-956.876 -36.242 0)
(-952.498 -42.727 0)
(-947.937 -48.6576 0)
(-943.228 -54.0055 0)
(-938.415 -58.7441 0)
(-933.541 -62.8489 0)
(-0.588379 14.2038 0)
(-0.697102 46.3091 0)
(-22.7195 143.269 0)
(-153.08 340.054 0)
(-458.491 507.334 0)
(-790.508 413.505 0)
(-958.355 211.504 0)
(-993.328 91.8045 0)
(-992.136 37.2166 0)
(-987.232 12.8775 0)
(-983.514 0.61574 0)
(-980.14 -8.51508 0)
(-976.409 -17.2268 0)
(-972.345 -25.4844 0)
(-967.972 -33.2531 0)
(-963.319 -40.4983 0)
(-958.418 -47.1869 0)
(-953.305 -53.2868 0)
(-948.018 -58.7663 0)
(-942.601 -63.5957 0)
(-937.099 -67.7471 0)
(-0.569941 14.2048 0)
(-0.563251 46.3073 0)
(-22.1177 143.432 0)
(-151.729 341.682 0)
(-458.604 513.55 0)
(-795.949 422.338 0)
(-968.329 216.058 0)
(-1004.05 92.2057 0)
(-1002.17 35.5019 0)
(-996.607 10.1968 0)
(-992.447 -2.5522 0)
(-988.687 -12.0444 0)
(-984.536 -21.0978 0)
(-980.017 -29.6746 0)
(-975.156 -37.7368 0)
(-969.981 -45.2467 0)
(-964.526 -52.1678 0)
(-958.826 -58.4646 0)
(-952.923 -64.102 0)
(-946.861 -69.0468 0)
(-940.687 -73.2674 0)
(-0.551505 14.2057 0)
(-0.429216 46.3051 0)
(-21.5121 143.592 0)
(-150.35 343.305 0)
(-458.665 519.823 0)
(-801.455 431.401 0)
(-978.591 220.758 0)
(-1015.18 92.526 0)
(-1012.59 33.5549 0)
(-1006.36 7.20482 0)
(-1001.74 -6.07426 0)
(-997.58 -15.9613 0)
(-992.989 -25.3901 0)
(-987.992 -34.3195 0)
(-982.616 -42.7083 0)
(-976.89 -50.5153 0)
(-970.849 -57.7007 0)
(-964.528 -64.2251 0)
(-957.97 -70.0498 0)
(-951.22 -75.1377 0)
(-944.328 -79.4536 0)
(-0.53307 14.2067 0)
(-0.294982 46.3025 0)
(-20.9026 143.75 0)
(-148.945 344.921 0)
(-458.671 526.154 0)
(-807.028 440.703 0)
(-989.153 225.621 0)
(-1026.72 92.7691 0)
(-1023.46 31.37 0)
(-1016.53 3.89004 0)
(-1011.44 -9.96545 0)
(-1006.85 -20.2836 0)
(-1001.8 -30.1242 0)
(-996.303 -39.4426 0)
(-990.387 -48.1943 0)
(-984.08 -56.3341 0)
(-977.419 -63.8186 0)
(-970.439 -70.6046 0)
(-963.186 -76.6493 0)
(-955.704 -81.9116 0)
(-948.047 -86.352 0)
(-0.514637 14.2075 0)
(-0.160562 46.2996 0)
(-20.2894 143.904 0)
(-147.511 346.531 0)
(-458.621 532.542 0)
(-812.666 450.251 0)
(-1000.03 230.659 0)
(-1038.72 92.9404 0)
(-1034.78 28.9424 0)
(-1027.14 0.241826 0)
(-1021.56 -14.2398 0)
(-1016.54 -25.0282 0)
(-1011.01 -35.3199 0)
(-1004.99 -45.0669 0)
(-998.502 -54.2207 0)
(-991.585 -62.7324 0)
(-984.269 -70.5545 0)
(-976.594 -77.6396 0)
(-968.603 -83.9407 0)
(-960.345 -89.4122 0)
(-951.872 -94.0102 0)
(-0.496207 14.2084 0)
(-0.0259581 46.2964 0)
(-19.6725 144.056 0)
(-146.049 348.134 0)
(-458.512 538.988 0)
(-818.37 460.055 0)
(-1011.23 235.89 0)
(-1051.2 93.0462 0)
(-1046.6 26.2683 0)
(-1038.24 -3.75001 0)
(-1032.15 -18.9112 0)
(-1026.68 -30.2119 0)
(-1020.65 -40.9974 0)
(-1014.08 -51.2157 0)
(-1007 -60.8144 0)
(-999.442 -69.7406 0)
(-991.438 -77.9423 0)
(-983.028 -85.3679 0)
(-974.257 -91.9656 0)
(-965.174 -97.6852 0)
(-955.835 -102.478 0)
(-0.477779 14.2092 0)
(0.108827 46.2928 0)
(-19.0517 144.206 0)
(-144.559 349.73 0)
(-458.342 545.489 0)
(-824.137 470.122 0)
(-1022.77 241.331 0)
(-1064.18 93.0946 0)
(-1058.96 23.3449 0)
(-1049.86 -8.09482 0)
(-1043.25 -23.9929 0)
(-1037.31 -35.8512 0)
(-1030.76 -47.1763 0)
(-1023.62 -57.9122 0)
(-1015.92 -68.0024 0)
(-1007.69 -77.3894 0)
(-998.966 -86.0168 0)
(-989.782 -93.8282 0)
(-980.187 -100.767 0)
(-970.231 -106.778 0)
(-959.971 -111.807 0)
(-0.459355 14.21 0)
(0.243781 46.2889 0)
(-18.4273 144.352 0)
(-143.041 351.318 0)
(-458.107 552.047 0)
(-829.967 480.461 0)
(-1034.66 247.002 0)
(-1077.7 93.0951 0)
(-1071.89 20.1709 0)
(-1062.05 -12.8008 0)
(-1054.9 -29.4971 0)
(-1048.48 -41.9617 0)
(-1041.39 -53.8758 0)
(-1033.66 -65.1793 0)
(-1025.32 -75.8112 0)
(-1016.38 -85.7095 0)
(-1006.9 -94.8127 0)
(-996.899 -103.06 0)
(-986.435 -110.388 0)
(-975.556 -116.738 0)
(-964.321 -122.049 0)
(-0.440932 14.2108 0)
(0.378918 46.2846 0)
(-17.7991 144.495 0)
(-141.493 352.899 0)
(-457.806 558.66 0)
(-835.858 491.083 0)
(-1046.91 252.923 0)
(-1091.79 93.059 0)
(-1085.43 16.7458 0)
(-1074.85 -17.8759 0)
(-1067.16 -35.4362 0)
(-1060.23 -48.5591 0)
(-1052.59 -61.1155 0)
(-1044.25 -73.0406 0)
(-1035.23 -84.2688 0)
(-1025.56 -94.733 0)
(-1015.28 -104.367 0)
(-1004.43 -113.104 0)
(-993.05 -120.876 0)
(-981.197 -127.617 0)
(-968.929 -133.261 0)
(-0.422512 14.2115 0)
(0.514225 46.28 0)
(-17.1673 144.636 0)
(-139.916 354.472 0)
(-457.436 565.329 0)
(-841.809 501.996 0)
(-1059.55 259.117 0)
(-1106.49 92.9998 0)
(-1099.64 13.0713 0)
(-1088.31 -23.3259 0)
(-1080.06 -41.8203 0)
(-1072.63 -55.6576 0)
(-1064.42 -68.9133 0)
(-1055.44 -81.5181 0)
(-1045.72 -93.4014 0)
(-1035.29 -104.491 0)
(-1024.17 -114.715 0)
(-1012.42 -124.001 0)
(-1000.08 -132.275 0)
(-987.204 -139.465 0)
(-973.846 -145.5 0)
(-0.404097 14.2122 0)
(0.649693 46.275 0)
(-16.5317 144.773 0)
(-138.309 356.036 0)
(-456.993 572.052 0)
(-847.817 513.21 0)
(-1072.58 265.607 0)
(-1121.82 92.9329 0)
(-1114.56 9.15089 0)
(-1102.48 -29.1551 0)
(-1093.66 -48.6585 0)
(-1085.71 -63.2699 0)
(-1076.91 -77.2861 0)
(-1067.28 -90.6331 0)
(-1056.84 -103.235 0)
(-1045.61 -115.014 0)
(-1033.63 -125.892 0)
(-1020.94 -135.791 0)
(-1007.59 -144.632 0)
(-993.634 -152.335 0)
(-979.127 -158.822 0)
(-0.385684 14.2129 0)
(0.785333 46.2697 0)
(-15.8925 144.908 0)
(-136.672 357.591 0)
(-456.475 578.83 0)
(-853.88 524.735 0)
(-1086.01 272.42 0)
(-1137.83 92.8763 0)
(-1130.23 4.98949 0)
(-1117.42 -35.3671 0)
(-1108.03 -55.9594 0)
(-1099.55 -71.4088 0)
(-1090.15 -86.2513 0)
(-1079.84 -100.408 0)
(-1068.65 -113.796 0)
(-1056.59 -126.333 0)
(-1043.71 -137.936 0)
(-1030.05 -148.519 0)
(-1015.64 -157.995 0)
(-1000.55 -166.28 0)
(-984.831 -173.288 0)
(-0.367274 14.2136 0)
(0.921135 46.264 0)
(-15.2495 145.04 0)
(-135.005 359.138 0)
(-455.879 585.66 0)
(-859.994 536.581 0)
(-1099.87 279.585 0)
(-1154.56 92.8505 0)
(-1146.71 0.594971 0)
(-1133.18 -41.9624 0)
(-1123.22 -63.7287 0)
(-1114.2 -80.0843 0)
(-1104.18 -95.8233 0)
(-1093.18 -110.861 0)
(-1081.22 -125.109 0)
(-1068.31 -138.48 0)
(-1054.5 -150.882 0)
(-1039.81 -162.224 0)
(-1024.3 -172.413 0)
(-1008.02 -181.356 0)
(-991.026 -188.959 0)
(-0.348869 14.2142 0)
(1.05709 46.258 0)
(-14.603 145.168 0)
(-133.307 360.674 0)
(-455.202 592.543 0)
(-866.156 548.757 0)
(-1114.16 287.129 0)
(-1172.04 92.8789 0)
(-1164.05 -4.02223 0)
(-1149.82 -48.9396 0)
(-1139.3 -71.97 0)
(-1129.73 -89.3046 0)
(-1119.09 -106.015 0)
(-1107.38 -122.011 0)
(-1094.62 -137.198 0)
(-1080.83 -151.482 0)
(-1066.04 -164.765 0)
(-1050.3 -176.948 0)
(-1033.63 -187.931 0)
(-1016.11 -197.614 0)
(-997.785 -205.895 0)
(-0.330467 14.2147 0)
(1.1932 46.2517 0)
(-13.9529 145.294 0)
(-131.579 362.201 0)
(-454.439 599.478 0)
(-872.36 561.275 0)
(-1128.9 295.088 0)
(-1190.32 92.9879 0)
(-1182.32 -8.84961 0)
(-1167.42 -56.2955 0)
(-1156.33 -80.6864 0)
(-1146.22 -99.0774 0)
(-1134.94 -116.839 0)
(-1122.51 -133.876 0)
(-1108.93 -150.087 0)
(-1094.24 -165.37 0)
(-1078.44 -179.621 0)
(-1061.59 -192.734 0)
(-1043.73 -204.601 0)
(-1024.91 -215.113 0)
(-1005.19 -224.16 0)
(-0.312069 14.2153 0)
(1.32947 46.245 0)
(-13.2991 145.417 0)
(-129.819 363.718 0)
(-453.589 606.463 0)
(-878.604 574.145 0)
(-1144.11 303.493 0)
(-1209.44 93.2074 0)
(-1201.57 -13.8707 0)
(-1186.05 -64.0233 0)
(-1174.39 -89.8766 0)
(-1163.73 -109.406 0)
(-1151.82 -128.305 0)
(-1138.65 -146.47 0)
(-1124.24 -163.796 0)
(-1108.61 -180.17 0)
(-1091.78 -195.484 0)
(-1073.79 -209.623 0)
(-1054.68 -222.47 0)
(-1034.5 -233.907 0)
(-1013.32 -243.818 0)
(-0.293676 14.2158 0)
(1.46588 46.2379 0)
(-12.6418 145.536 0)
(-128.028 365.224 0)
(-452.646 613.497 0)
(-884.879 587.375 0)
(-1159.78 312.382 0)
(-1229.44 93.571 0)
(-1221.87 -19.066 0)
(-1205.77 -72.1133 0)
(-1193.56 -99.5372 0)
(-1182.36 -120.293 0)
(-1169.8 -140.42 0)
(-1155.89 -159.808 0)
(-1140.63 -178.344 0)
(-1124.04 -195.91 0)
(-1106.14 -212.387 0)
(-1086.97 -227.654 0)
(-1066.57 -241.584 0)
(-1044.98 -254.052 0)
(-1022.28 -264.931 0)
(-0.275287 14.2163 0)
(1.60244 46.2305 0)
(-11.9809 145.653 0)
(-126.205 366.719 0)
(-451.608 620.58 0)
(-891.182 600.978 0)
(-1175.95 321.794 0)