/*--------------------------------*- C++ -*----------------------------------*\
  =========                 |
  \\      /  F ield         | OpenFOAM: The Open Source CFD Toolbox
   \\    /   O peration     | Website:  https://openfoam.org
    \\  /    A nd           | Version:  7
     \\/     M anipulation  |
\*---------------------------------------------------------------------------*/
FoamFile
{
    version     2.0;
    format      ascii;
    class       volScalarField;
    location    "0/insulator";
    object      voltI;
}
// * * * * * * * * * * * * * * * * * * * * * * * * * * * * * * * * * * * * * //

dimensions      [1 2 -3 0 0 -1 0];

internalField   nonuniform List<scalar> 
98782
(
-1976.4
-1928.29
-1836.1
-1766.22
-1728.04
-1708.94
-1699.61
-1695.08
-1692.89
-1691.84
-1691.27
-1690.84
-1690.4
-1689.96
-1689.53
-1689.09
-1688.65
-1688.21
-1687.78
-1687.34
-1686.9
-1980.64
-1954.32
-1877.14
-1797.02
-1747.82
-1722.26
-1709.6
-1703.43
-1700.44
-1699
-1698.23
-1697.63
-1697.03
-1696.43
-1695.83
-1695.23
-1694.63
-1694.03
-1693.43
-1692.83
-1692.23
-1984.8
-1984.97
-1941.01
-1855.4
-1788.82
-1751.52
-1732.55
-1723.2
-1718.65
-1716.44
-1715.26
-1714.35
-1713.43
-1712.52
-1711.6
-1710.68
-1709.76
-1708.84
-1707.92
-1707
-1706.08
-1987.75
-2010.87
-2012.5
-1940.84
-1856.52
-1802.92
-1774.44
-1760.16
-1753.16
-1749.75
-1747.93
-1746.51
-1745.09
-1743.67
-1742.25
-1740.82
-1739.39
-1737.96
-1736.52
-1735.08
-1733.64
-1989.58
-2029.67
-2077.95
-2044.96
-1952.88
-1881.22
-1840.5
-1819.54
-1809.14
-1804.06
-1801.33
-1799.21
-1797.09
-1794.95
-1792.81
-1790.66
-1788.51
-1786.34
-1784.17
-1781.99
-1779.81
-1990.65
-2042.3
-2130.1
-2152.21
-2072.45
-1986.16
-1932.09
-1903.23
-1888.68
-1881.51
-1877.67
-1874.67
-1871.65
-1868.61
-1865.56
-1862.49
-1859.41
-1856.31
-1853.2
-1850.07
-1846.92
-1991.26
-2050.49
-2168.08
-2248.16
-2202.37
-2110.82
-2044.94
-2007.98
-1988.97
-1979.52
-1974.43
-1970.44
-1966.42
-1962.37
-1958.29
-1954.17
-1950.03
-1945.85
-1941.64
-1937.4
-1933.13
-1991.62
-2055.75
-2194.38
-2325.49
-2327.39
-2243.28
-2169.76
-2125.82
-2102.63
-2090.97
-2084.66
-2079.7
-2074.68
-2069.61
-2064.48
-2059.3
-2054.06
-2048.77
-2043.42
-2038.02
-2032.56
-1991.82
-2059.16
-2212.18
-2383.67
-2436.22
-2370.74
-2295.15
-2246.34
-2219.8
-2206.29
-2198.92
-2193.11
-2187.21
-2181.23
-2175.16
-2169.01
-2162.76
-2156.43
-2150.02
-2143.52
-2136.93
-1991.94
-2061.39
-2224.15
-2425.74
-2524.17
-2483.59
-2411
-2359.78
-2330.99
-2316.12
-2307.96
-2301.5
-2294.92
-2288.22
-2281.39
-2274.44
-2267.37
-2260.18
-2252.86
-2245.42
-2237.86
-1992.02
-2062.87
-2232.23
-2455.52
-2591.77
-2577.16
-2510.91
-2459.33
-2429.34
-2413.63
-2404.95
-2398.06
-2391
-2383.79
-2376.42
-2368.89
-2361.2
-2353.35
-2345.33
-2337.16
-2328.83
-1992.06
-2063.86
-2237.73
-2476.41
-2642.07
-2651.09
-2592.53
-2541.92
-2511.51
-2495.37
-2486.39
-2479.24
-2471.9
-2464.36
-2456.63
-2448.71
-2440.59
-2432.28
-2423.77
-2415.06
-2406.16
-1992.09
-2064.54
-2241.49
-2491.04
-2678.77
-2707.54
-2656.54
-2607.53
-2577.18
-2560.87
-2551.76
-2544.47
-2536.97
-2529.24
-2521.29
-2513.13
-2504.73
-2496.11
-2487.27
-2478.19
-2468.89
-1992.11
-2065.01
-2244.09
-2501.28
-2705.24
-2749.63
-2705.29
-2657.99
-2627.93
-2611.61
-2602.45
-2595.11
-2587.52
-2579.69
-2571.62
-2563.3
-2554.74
-2545.92
-2536.86
-2527.54
-2517.96
-1992.12
-2065.34
-2245.89
-2508.46
-2724.2
-2780.53
-2741.63
-2695.91
-2666.2
-2649.94
-2640.78
-2633.41
-2625.8
-2617.92
-2609.78
-2601.38
-2592.71
-2583.77
-2574.56
-2565.08
-2555.32
-1992.13
-2065.56
-2247.15
-2513.51
-2737.72
-2802.95
-2768.32
-2723.91
-2694.54
-2678.36
-2669.22
-2661.86
-2654.23
-2646.33
-2638.16
-2629.7
-2620.97
-2611.96
-2602.65
-2593.07
-2583.19
-1992.14
-2065.72
-2248.04
-2517.07
-2747.34
-2819.11
-2787.72
-2744.34
-2715.27
-2699.16
-2690.05
-2682.7
-2675.07
-2667.16
-2658.97
-2650.49
-2641.72
-2632.65
-2623.29
-2613.63
-2603.67
-1992.14
-2065.83
-2248.66
-2519.57
-2754.17
-2830.69
-2801.7
-2759.13
-2730.28
-2714.25
-2705.15
-2697.82
-2690.2
-2682.29
-2674.08
-2665.59
-2656.79
-2647.7
-2638.3
-2628.59
-2618.58
-1992.14
-2065.91
-2249.09
-2521.34
-2759.02
-2838.96
-2811.74
-2769.76
-2741.09
-2725.11
-2716.04
-2708.71
-2701.1
-2693.19
-2684.98
-2676.48
-2667.67
-2658.55
-2649.12
-2639.39
-2629.33
-1992.14
-2065.96
-2249.4
-2522.59
-2762.46
-2844.85
-2818.91
-2777.37
-2748.83
-2732.89
-2723.84
-2716.52
-2708.91
-2701
-2692.8
-2684.29
-2675.47
-2666.34
-2656.9
-2647.13
-2637.05
-1992.15
-2066.04
-2249.81
-2524.23
-2766.96
-2852.6
-2828.36
-2787.4
-2759.05
-2743.17
-2734.13
-2726.83
-2719.23
-2711.33
-2703.12
-2694.6
-2685.77
-2676.63
-2667.16
-2657.37
-2647.26
-1992.15
-2066.14
-2250.35
-2526.45
-2773.13
-2863.27
-2841.45
-2801.34
-2773.26
-2757.46
-2748.46
-2741.18
-2733.6
-2725.7
-2717.5
-2708.97
-2700.13
-2690.97
-2681.47
-2671.65
-2661.49
-1992.15
-2066.23
-2250.9
-2528.67
-2779.3
-2874.04
-2854.72
-2815.51
-2787.71
-2772.02
-2763.06
-2755.8
-2748.23
-2740.35
-2732.15
-2723.63
-2714.78
-2705.6
-2696.08
-2686.22
-2676.02
-1992.16
-2066.33
-2251.44
-2530.88
-2785.49
-2884.9
-2868.16
-2829.9
-2802.42
-2786.84
-2777.92
-2770.7
-2763.15
-2755.29
-2747.09
-2738.57
-2729.72
-2720.52
-2710.98
-2701.09
-2690.86
-1992.16
-2066.43
-2251.98
-2533.07
-2791.68
-2895.86
-2881.8
-2844.53
-2817.39
-2801.92
-2793.06
-2785.87
-2778.35
-2770.51
-2762.33
-2753.81
-2744.95
-2735.75
-2726.19
-2716.28
-2706.01
-1992.16
-2066.52
-2252.51
-2535.26
-2797.88
-2906.9
-2895.61
-2859.4
-2832.62
-2817.29
-2808.49
-2801.33
-2793.84
-2786.02
-2777.86
-2769.36
-2760.5
-2751.29
-2741.72
-2731.78
-2721.48
-1992.17
-2066.62
-2253.04
-2537.44
-2804.08
-2918.04
-2909.62
-2874.51
-2848.12
-2832.93
-2824.19
-2817.08
-2809.63
-2801.84
-2793.7
-2785.21
-2776.36
-2767.15
-2757.56
-2747.61
-2737.28
-1992.17
-2066.71
-2253.57
-2539.61
-2810.29
-2929.26
-2923.81
-2889.86
-2863.89
-2848.86
-2840.2
-2833.13
-2825.72
-2817.97
-2809.85
-2801.38
-2792.54
-2783.33
-2773.74
-2763.77
-2753.41
-1992.17
-2066.8
-2254.09
-2541.77
-2816.5
-2940.57
-2938.2
-2905.47
-2879.94
-2865.08
-2856.49
-2849.48
-2842.12
-2834.41
-2826.32
-2817.87
-2809.05
-2799.84
-2790.25
-2780.27
-2769.89
-1992.18
-2066.9
-2254.61
-2543.92
-2822.72
-2951.98
-2952.77
-2921.33
-2896.28
-2881.6
-2873.1
-2866.15
-2858.84
-2851.17
-2843.12
-2834.7
-2825.9
-2816.7
-2807.11
-2797.12
-2786.73
-1992.18
-2066.99
-2255.13
-2546.05
-2828.94
-2963.47
-2967.54
-2937.44
-2912.9
-2898.43
-2890.01
-2883.13
-2875.88
-2868.26
-2860.25
-2851.87
-2843.09
-2833.91
-2824.33
-2814.34
-2803.93
-1992.18
-2067.08
-2255.64
-2548.18
-2835.16
-2975.04
-2982.51
-2953.82
-2929.82
-2915.56
-2907.25
-2900.43
-2893.25
-2885.68
-2877.73
-2869.38
-2860.63
-2851.47
-2841.91
-2831.92
-2821.5
-1992.18
-2067.17
-2256.15
-2550.29
-2841.37
-2986.71
-2997.67
-2970.46
-2947.03
-2933
-2924.8
-2918.07
-2910.95
-2903.45
-2895.55
-2887.25
-2878.53
-2869.41
-2859.85
-2849.87
-2839.45
-1992.19
-2067.26
-2256.65
-2552.4
-2847.59
-2998.45
-3013.03
-2987.37
-2964.55
-2950.77
-2942.69
-2936.03
-2929
-2921.56
-2913.72
-2905.47
-2896.81
-2887.71
-2878.18
-2868.22
-2857.8
-1992.19
-2067.35
-2257.15
-2554.49
-2853.8
-3010.28
-3028.58
-3004.55
-2982.38
-2968.86
-2960.91
-2954.35
-2947.39
-2940.03
-2932.26
-2924.07
-2915.46
-2906.4
-2896.9
-2886.96
-2876.55
-1992.19
-2067.44
-2257.65
-2556.57
-2860.01
-3022.19
-3044.34
-3022.01
-3000.52
-2987.29
-2979.47
-2973.01
-2966.15
-2958.87
-2951.18
-2943.05
-2934.49
-2925.49
-2916.02
-2906.1
-2895.71
-1992.19
-2067.53
-2258.15
-2558.64
-2866.22
-3034.18
-3060.3
-3039.74
-3018.97
-3006.05
-2998.38
-2992.03
-2985.26
-2978.08
-2970.47
-2962.42
-2953.92
-2944.97
-2935.55
-2925.66
-2915.29
-1992.2
-2067.62
-2258.64
-2560.69
-2872.42
-3046.24
-3076.46
-3057.76
-3037.76
-3025.15
-3017.64
-3011.41
-3004.75
-2997.67
-2990.15
-2982.18
-2973.75
-2964.86
-2955.5
-2945.65
-2935.3
-1992.2
-2067.71
-2259.12
-2562.73
-2878.61
-3058.39
-3092.82
-3076.06
-3056.87
-3044.61
-3037.27
-3031.16
-3024.62
-3017.64
-3010.22
-3002.34
-2994
-2985.18
-2975.87
-2966.07
-2955.76
-1992.2
-2067.79
-2259.61
-2564.76
-2884.79
-3070.6
-3109.39
-3094.66
-3076.32
-3064.42
-3057.26
-3051.28
-3044.87
-3038.01
-3030.7
-3022.92
-3014.66
-3005.92
-2996.68
-2986.94
-2976.67
-1992.2
-2067.88
-2260.08
-2566.78
-2890.96
-3082.89
-3126.16
-3113.54
-3096.1
-3084.6
-3077.63
-3071.8
-3065.52
-3058.78
-3051.59
-3043.92
-3035.76
-3027.1
-3017.94
-3008.26
-2998.05
-1992.2
-2067.96
-2260.56
-2568.78
-2897.12
-3095.25
-3143.13
-3132.73
-3116.23
-3105.14
-3098.38
-3092.7
-3086.56
-3079.97
-3072.9
-3065.35
-3057.3
-3048.74
-3039.66
-3030.05
-3019.91
-1992.21
-2068.05
-2261.03
-2570.77
-2903.26
-3107.68
-3160.3
-3152.21
-3136.71
-3126.06
-3119.52
-3114
-3108.02
-3101.57
-3094.64
-3087.21
-3079.28
-3070.83
-3061.85
-3052.32
-3042.25
-1992.21
-2068.13
-2261.5
-2572.74
-2909.4
-3120.17
-3177.69
-3171.99
-3157.55
-3147.36
-3141.05
-3135.7
-3129.89
-3123.6
-3116.81
-3109.53
-3101.72
-3093.39
-3084.51
-3075.08
-3065.09
-1992.21
-2068.22
-2261.96
-2574.7
-2915.51
-3132.73
-3195.27
-3192.08
-3178.74
-3169.04
-3162.98
-3157.82
-3152.18
-3146.06
-3139.44
-3132.3
-3124.63
-3116.43
-3107.67
-3098.35
-3088.44
-1992.21
-2068.3
-2262.42
-2576.65
-2921.61
-3145.35
-3213.06
-3212.47
-3200.3
-3191.12
-3185.32
-3180.36
-3174.91
-3168.97
-3162.51
-3155.54
-3148.02
-3139.96
-3131.33
-3122.12
-3112.32
-1992.21
-2068.38
-2262.88
-2578.58
-2927.69
-3158.02
-3231.05
-3233.18
-3222.23
-3213.6
-3208.08
-3203.32
-3198.07
-3192.32
-3186.05
-3179.25
-3171.9
-3163.99
-3155.5
-3146.42
-3136.73
-1992.21
-2068.46
-2263.33
-2580.49
-2933.75
-3170.75
-3249.23
-3254.2
-3244.52
-3236.47
-3231.25
-3226.71
-3221.68
-3216.14
-3210.06
-3203.45
-3196.27
-3188.53
-3180.19
-3171.25
-3161.69
-1992.21
-2068.54
-2263.78
-2582.39
-2939.79
-3183.52
-3267.63
-3275.53
-3267.2
-3259.76
-3254.85
-3250.55
-3245.74
-3240.42
-3234.55
-3228.14
-3221.15
-3213.59
-3205.42
-3196.63
-3187.21
-1992.22
-2068.62
-2264.22
-2584.28
-2945.8
-3196.35
-3286.22
-3297.18
-3290.26
-3283.46
-3278.88
-3274.83
-3270.27
-3265.17
-3259.53
-3253.33
-3246.55
-3239.18
-3231.19
-3222.57
-3213.31
-1992.22
-2068.7
-2264.66
-2586.14
-2951.79
-3209.22
-3305
-3319.15
-3313.7
-3307.59
-3303.35
-3299.56
-3295.26
-3290.41
-3285.01
-3279.04
-3272.48
-3265.31
-3257.51
-3249.08
-3239.98
-1992.22
-2068.78
-2265.09
-2588
-2957.75
-3222.13
-3323.98
-3341.44
-3337.54
-3332.13
-3328.27
-3324.76
-3320.72
-3316.14
-3310.99
-3305.27
-3298.94
-3291.99
-3284.41
-3276.17
-3267.26
-1992.22
-2068.86
-2265.53
-2589.83
-2963.68
-3235.08
-3343.16
-3364.05
-3361.77
-3357.11
-3353.64
-3350.42
-3346.67
-3342.37
-3337.49
-3332.03
-3325.95
-3319.24
-3311.89
-3303.86
-3295.15
-1992.22
-2068.94
-2265.95
-2591.65
-2969.59
-3248.06
-3362.53
-3386.98
-3386.4
-3382.53
-3379.46
-3376.56
-3373.11
-3369.1
-3364.51
-3359.32
-3353.51
-3347.06
-3339.95
-3332.16
-3323.67
-1992.22
-2069.01
-2266.38
-2593.45
-2975.46
-3261.07
-3382.08
-3410.23
-3411.42
-3408.39
-3405.75
-3403.17
-3400.04
-3396.35
-3392.07
-3387.17
-3381.65
-3375.47
-3368.62
-3361.08
-3352.82
-1992.22
-2069.09
-2266.8
-2595.24
-2981.3
-3274.1
-3401.82
-3433.81
-3436.85
-3434.68
-3432.5
-3430.27
-3427.48
-3424.12
-3420.16
-3415.58
-3410.35
-3404.47
-3397.9
-3390.63
-3382.62
-1992.22
-2069.16
-2267.21
-2597
-2987.1
-3287.15
-3421.73
-3457.71
-3462.69
-3461.44
-3459.72
-3457.86
-3455.43
-3452.41
-3448.8
-3444.55
-3439.65
-3434.08
-3427.81
-3420.82
-3413.09
-1992.22
-2069.24
-2267.62
-2598.75
-2992.87
-3300.21
-3441.83
-3481.94
-3488.94
-3488.64
-3487.43
-3485.94
-3483.89
-3481.25
-3477.99
-3474.1
-3469.54
-3464.3
-3458.35
-3451.67
-3444.24
-1992.22
-2069.31
-2268.03
-2600.48
-2998.59
-3313.29
-3462.09
-3506.48
-3515.59
-3516.3
-3515.61
-3514.53
-3512.88
-3510.62
-3507.75
-3504.23
-3500.04
-3495.15
-3489.54
-3483.19
-3476.07
-1992.23
-2069.39
-2268.43
-2602.2
-3004.28
-3326.37
-3482.53
-3531.35
-3542.67
-3544.42
-3544.29
-3543.63
-3542.39
-3540.55
-3538.08
-3534.95
-3531.15
-3526.64
-3521.39
-3515.39
-3508.61
-1992.23
-2069.46
-2268.83
-2603.89
-3009.93
-3339.45
-3503.12
-3556.54
-3570.15
-3573.01
-3573.45
-3573.24
-3572.44
-3571.03
-3568.99
-3566.28
-3562.88
-3558.77
-3553.91
-3548.29
-3541.86
-1992.23
-2069.53
-2269.22
-2605.56
-3015.53
-3352.52
-3523.87
-3582.05
-3598.05
-3602.06
-3603.11
-3603.37
-3603.03
-3602.08
-3600.48
-3598.21
-3595.25
-3591.56
-3587.11
-3581.88
-3575.84
-1992.23
-2069.6
-2269.61
-2607.22
-3021.08
-3365.58
-3544.77
-3607.87
-3626.37
-3631.58
-3633.27
-3634.01
-3634.16
-3633.69
-3632.57
-3630.77
-3628.26
-3625.01
-3621
-3616.2
-3610.57
-1992.23
-2069.67
-2269.99
-2608.86
-3026.59
-3378.63
-3565.81
-3634
-3655.11
-3661.58
-3663.93
-3665.19
-3665.85
-3665.88
-3665.26
-3663.95
-3661.92
-3659.15
-3655.6
-3651.25
-3646.05
-1992.23
-2069.74
-2270.37
-2610.47
-3032.04
-3391.64
-3586.99
-3660.44
-3684.26
-3692.04
-3695.1
-3696.89
-3698.09
-3698.65
-3698.55
-3697.76
-3696.24
-3693.97
-3690.91
-3687.03
-3682.31
-1992.23
-2069.81
-2270.75
-2612.07
-3037.45
-3404.63
-3608.3
-3687.19
-3713.82
-3722.99
-3726.77
-3729.13
-3730.89
-3732
-3732.46
-3732.21
-3731.23
-3729.49
-3726.95
-3723.57
-3719.34
-1992.23
-2069.88
-2271.12
-2613.65
-3042.8
-3417.58
-3629.72
-3714.23
-3743.8
-3754.4
-3758.95
-3761.9
-3764.24
-3765.95
-3766.98
-3767.31
-3766.89
-3765.71
-3763.71
-3760.88
-3757.16
-1992.23
-2069.95
-2271.49
-2615.21
-3048.1
-3430.49
-3651.25
-3741.57
-3774.19
-3786.29
-3791.64
-3795.21
-3798.17
-3800.49
-3802.13
-3803.06
-3803.24
-3802.64
-3801.23
-3798.96
-3795.8
-1992.23
-2070.01
-2271.85
-2616.74
-3053.34
-3443.34
-3672.88
-3769.19
-3804.99
-3818.66
-3824.84
-3829.06
-3832.67
-3835.63
-3837.91
-3839.47
-3840.28
-3840.3
-3839.49
-3837.82
-3835.25
-1992.23
-2070.08
-2272.21
-2618.26
-3058.52
-3456.14
-3694.6
-3797.1
-3836.2
-3851.49
-3858.55
-3863.45
-3867.73
-3871.37
-3874.32
-3876.55
-3878.02
-3878.69
-3878.53
-3877.49
-3875.53
-1992.23
-2070.15
-2272.56
-2619.75
-3063.64
-3468.87
-3716.4
-3825.27
-3867.81
-3884.8
-3892.77
-3898.38
-3903.37
-3907.72
-3911.37
-3914.3
-3916.47
-3917.82
-3918.33
-3917.96
-3916.66
-1992.23
-2070.21
-2272.91
-2621.23
-3068.69
-3481.52
-3738.26
-3853.71
-3899.81
-3918.58
-3927.5
-3933.85
-3939.59
-3944.67
-3949.07
-3952.73
-3955.62
-3957.7
-3958.93
-3959.25
-3958.64
-1992.23
-2070.28
-2273.26
-2622.68
-3073.68
-3494.1
-3760.17
-3882.4
-3932.2
-3952.83
-3962.74
-3969.87
-3976.38
-3982.24
-3987.41
-3991.84
-3995.5
-3998.34
-4000.31
-4001.38
-4001.49
-1992.23
-2070.34
-2273.6
-2624.11
-3078.61
-3506.59
-3782.12
-3911.33
-3964.98
-3987.53
-3998.49
-4006.42
-4013.74
-4020.42
-4026.4
-4031.64
-4036.11
-4039.74
-4042.5
-4044.35
-4045.23
-1992.23
-2070.4
-2273.93
-2625.51
-3083.46
-3518.97
-3804.1
-3940.48
-3998.13
-4022.69
-4034.73
-4043.51
-4051.68
-4059.21
-4066.04
-4072.13
-4077.44
-4081.91
-4085.5
-4088.17
-4089.85
-1992.22
-2070.46
-2274.27
-2626.9
-3088.24
-3531.26
-3826.08
-3969.85
-4031.64
-4058.3
-4071.47
-4081.14
-4090.2
-4098.62
-4106.34
-4113.32
-4119.51
-4124.86
-4129.32
-4132.85
-4135.39
-1992.22
-2070.53
-2274.59
-2628.26
-3092.95
-3543.42
-3848.05
-3999.42
-4065.51
-4094.36
-4108.71
-4119.3
-4129.29
-4138.63
-4147.29
-4155.2
-4162.32
-4168.6
-4173.98
-4178.41
-4181.84
-1686.46
-1686.01
-1685.57
-1685.12
-1684.68
-1684.23
-1683.78
-1683.34
-1682.89
-1682.45
-1682
-1681.55
-1681.11
-1680.66
-1680.21
-1679.77
-1679.32
-1678.87
-1678.43
-1677.98
-1677.54
-1677.09
-1676.64
-1676.2
-1675.75
-1675.3
-1674.86
-1674.41
-1673.96
-1673.52
-1673.07
-1672.62
-1672.18
-1671.73
-1671.28
-1670.84
-1670.39
-1669.94
-1669.5
-1669.05
-1668.6
-1668.16
-1667.71
-1667.26
-1666.82
-1666.37
-1665.92
-1665.48
-1665.03
-1664.58
-1664.14
-1663.69
-1663.25
-1662.8
-1691.62
-1691.01
-1690.4
-1689.79
-1689.17
-1688.56
-1687.95
-1687.33
-1686.72
-1686.1
-1685.49
-1684.88
-1684.26
-1683.65
-1683.03
-1682.42
-1681.8
-1681.18
-1680.57
-1679.95
-1679.34
-1678.72
-1678.1
-1677.49
-1676.87
-1676.25
-1675.64
-1675.02
-1674.4
-1673.79
-1673.17
-1672.55
-1671.93
-1671.32
-1670.7
-1670.08
-1669.46
-1668.85
-1668.23
-1667.61
-1666.99
-1666.37
-1665.76
-1665.14
-1664.52
-1663.9
-1663.29
-1662.67
-1662.05
-1661.43
-1660.81
-1660.2
-1659.58
-1658.96
-1705.15
-1704.2
-1703.26
-1702.32
-1701.37
-1700.43
-1699.48
-1698.54
-1697.59
-1696.64
-1695.69
-1694.74
-1693.79
-1692.84
-1691.89
-1690.94
-1689.98
-1689.03
-1688.08
-1687.12
-1686.16
-1685.21
-1684.25
-1683.29
-1682.34
-1681.38
-1680.42
-1679.46
-1678.5
-1677.54
-1676.58
-1675.62
-1674.66
-1673.69
-1672.73
-1671.77
-1670.81
-1669.84
-1668.88
-1667.92
-1666.95
-1665.99
-1665.02
-1664.06
-1663.09
-1662.13
-1661.16
-1660.2
-1659.23
-1658.27
-1657.3
-1656.34
-1655.37
-1654.4
-1732.18
-1730.71
-1729.24
-1727.76
-1726.28
-1724.79
-1723.31
-1721.82
-1720.33
-1718.83
-1717.34
-1715.84
-1714.34
-1712.84
-1711.33
-1709.83
-1708.32
-1706.81
-1705.3
-1703.78
-1702.27
-1700.75
-1699.23
-1697.71
-1696.18
-1694.66
-1693.13
-1691.6
-1690.07
-1688.54
-1687.01
-1685.47
-1683.94
-1682.4
-1680.86
-1679.32
-1677.78
-1676.24
-1674.7
-1673.15
-1671.61
-1670.06
-1668.52
-1666.97
-1665.42
-1663.87
-1662.32
-1660.77
-1659.22
-1657.67
-1656.12
-1654.57
-1653.02
-1651.47
-1777.6
-1775.36
-1773.11
-1770.86
-1768.6
-1766.33
-1764.06
-1761.78
-1759.5
-1757.21
-1754.91
-1752.61
-1750.3
-1747.98
-1745.66
-1743.33
-1741
-1738.67
-1736.32
-1733.98
-1731.62
-1729.27
-1726.9
-1724.54
-1722.17
-1719.79
-1717.41
-1715.02
-1712.64
-1710.24
-1707.85
-1705.45
-1703.04
-1700.64
-1698.22
-1695.81
-1693.39
-1690.97
-1688.55
-1686.13
-1683.7
-1681.27
-1678.83
-1676.4
-1673.96
-1671.52
-1669.08
-1666.64
-1664.19
-1661.74
-1659.3
-1656.85
-1654.4
-1651.95
-1843.73
-1840.49
-1837.24
-1833.97
-1830.69
-1827.4
-1824.08
-1820.76
-1817.42
-1814.06
-1810.7
-1807.32
-1803.92
-1800.51
-1797.09
-1793.66
-1790.21
-1786.76
-1783.29
-1779.81
-1776.31
-1772.81
-1769.29
-1765.77
-1762.23
-1758.69
-1755.13
-1751.57
-1747.99
-1744.41
-1740.81
-1737.21
-1733.6
-1729.99
-1726.36
-1722.73
-1719.09
-1715.45
-1711.79
-1708.14
-1704.47
-1700.8
-1697.13
-1693.44
-1689.76
-1686.07
-1682.38
-1678.68
-1674.98
-1671.27
-1667.57
-1663.86
-1660.15
-1656.43
-1928.79
-1924.38
-1919.94
-1915.47
-1910.97
-1906.44
-1901.87
-1897.29
-1892.67
-1888.02
-1883.35
-1878.65
-1873.92
-1869.17
-1864.39
-1859.59
-1854.76
-1849.91
-1845.03
-1840.13
-1835.21
-1830.26
-1825.3
-1820.31
-1815.3
-1810.27
-1805.23
-1800.16
-1795.07
-1789.97
-1784.85
-1779.72
-1774.56
-1769.4
-1764.21
-1759.02
-1753.81
-1748.58
-1743.35
-1738.1
-1732.84
-1727.57
-1722.29
-1717
-1711.71
-1706.4
-1701.09
-1695.77
-1690.45
-1685.12
-1679.79
-1674.45
-1669.11
-1663.76
-2027
-2021.34
-2015.62
-2009.84
-2004.02
-1998.14
-1992.21
-1986.22
-1980.19
-1974.11
-1967.98
-1961.8
-1955.57
-1949.3
-1942.98
-1936.61
-1930.2
-1923.75
-1917.26
-1910.72
-1904.14
-1897.53
-1890.87
-1884.18
-1877.45
-1870.69
-1863.89
-1857.06
-1850.19
-1843.3
-1836.37
-1829.42
-1822.43
-1815.43
-1808.39
-1801.33
-1794.25
-1787.15
-1780.03
-1772.88
-1765.72
-1758.54
-1751.35
-1744.14
-1736.92
-1729.69
-1722.45
-1715.19
-1707.93
-1700.66
-1693.39
-1686.11
-1678.83
-1671.55
-2130.2
-2123.32
-2116.35
-2109.3
-2102.16
-2094.94
-2087.64
-2080.25
-2072.78
-2065.23
-2057.61
-2049.9
-2042.12
-2034.27
-2026.34
-2018.33
-2010.26
-2002.11
-1993.9
-1985.62
-1977.28
-1968.87
-1960.39
-1951.86
-1943.27
-1934.62
-1925.92
-1917.17
-1908.36
-1899.5
-1890.6
-1881.65
-1872.65
-1863.62
-1854.55
-1845.43
-1836.29
-1827.11
-1817.9
-1808.66
-1799.39
-1790.1
-1780.79
-1771.45
-1762.1
-1752.74
-1743.36
-1733.97
-1724.57
-1715.16
-1705.75
-1696.33
-1686.92
-1677.51
-2230.1
-2222.15
-2214.08
-2205.88
-2197.56
-2189.11
-2180.55
-2171.86
-2163.06
-2154.14
-2145.1
-2135.95
-2126.69
-2117.32
-2107.83
-2098.24
-2088.55
-2078.75
-2068.85
-2058.85
-2048.75
-2038.56
-2028.28
-2017.91
-2007.45
-1996.91
-1986.29
-1975.59
-1964.81
-1953.96
-1943.05
-1932.06
-1921.02
-1909.91
-1898.75
-1887.53
-1876.27
-1864.95
-1853.6
-1842.21
-1830.77
-1819.31
-1807.82
-1796.3
-1784.76
-1773.2
-1761.63
-1750.05
-1738.45
-1726.86
-1715.26
-1703.67
-1692.08
-1680.5
-2320.25
-2311.44
-2302.45
-2293.31
-2284
-2274.53
-2264.89
-2255.1
-2245.14
-2235.03
-2224.76
-2214.34
-2203.77
-2193.04
-2182.17
-2171.15
-2159.99
-2148.69
-2137.25
-2125.68
-2113.97
-2102.14
-2090.18
-2078.09
-2065.9
-2053.58
-2041.16
-2028.63
-2015.99
-2003.26
-1990.43
-1977.52
-1964.52
-1951.44
-1938.29
-1925.06
-1911.77
-1898.41
-1885.01
-1871.55
-1858.04
-1844.49
-1830.91
-1817.3
-1803.66
-1790
-1776.33
-1762.65
-1748.96
-1735.28
-1721.6
-1707.92
-1694.27
-1680.64
-2396.97
-2387.5
-2377.83
-2367.95
-2357.87
-2347.58
-2337.1
-2326.41
-2315.53
-2304.44
-2293.17
-2281.7
-2270.03
-2258.18
-2246.14
-2233.92
-2221.51
-2208.93
-2196.17
-2183.25
-2170.15
-2156.89
-2143.47
-2129.9
-2116.17
-2102.3
-2088.29
-2074.14
-2059.87
-2045.46
-2030.94
-2016.31
-2001.57
-1986.72
-1971.78
-1956.76
-1941.65
-1926.46
-1911.2
-1895.89
-1880.52
-1865.09
-1849.63
-1834.13
-1818.61
-1803.06
-1787.5
-1771.94
-1756.37
-1740.81
-1725.26
-1709.74
-1694.24
-1678.77
-2459.27
-2449.33
-2439.14
-2428.72
-2418.07
-2407.17
-2396.04
-2384.67
-2373.07
-2361.24
-2349.17
-2336.87
-2324.35
-2311.6
-2298.63
-2285.44
-2272.03
-2258.41
-2244.59
-2230.55
-2216.32
-2201.89
-2187.26
-2172.45
-2157.47
-2142.3
-2126.96
-2111.47
-2095.81
-2080
-2064.06
-2047.97
-2031.76
-2015.42
-1998.97
-1982.41
-1965.76
-1949.02
-1932.19
-1915.29
-1898.33
-1881.31
-1864.25
-1847.14
-1830.01
-1812.85
-1795.69
-1778.51
-1761.35
-1744.2
-1727.07
-1709.97
-1692.91
-1675.9
-2508.04
-2497.77
-2487.23
-2476.42
-2465.34
-2454
-2442.4
-2430.52
-2418.39
-2405.99
-2393.33
-2380.41
-2367.23
-2353.79
-2340.1
-2326.17
-2311.98
-2297.56
-2282.89
-2267.99
-2252.86
-2237.5
-2221.93
-2206.14
-2190.14
-2173.95
-2157.55
-2140.97
-2124.21
-2107.28
-2090.18
-2072.92
-2055.52
-2037.97
-2020.3
-2002.5
-1984.6
-1966.59
-1948.48
-1930.3
-1912.04
-1893.72
-1875.35
-1856.94
-1838.49
-1820.03
-1801.55
-1783.07
-1764.61
-1746.16
-1727.75
-1709.37
-1691.05
-1672.78
-2545.19
-2534.69
-2523.9
-2512.82
-2501.45
-2489.79
-2477.84
-2465.6
-2453.07
-2440.26
-2427.16
-2413.77
-2400.11
-2386.16
-2371.93
-2357.43
-2342.66
-2327.62
-2312.32
-2296.76
-2280.95
-2264.89
-2248.58
-2232.04
-2215.27
-2198.27
-2181.06
-2163.64
-2146.02
-2128.21
-2110.22
-2092.05
-2073.72
-2055.23
-2036.6
-2017.83
-1998.94
-1979.94
-1960.84
-1941.64
-1922.37
-1903.02
-1883.62
-1864.18
-1844.71
-1825.21
-1805.71
-1786.2
-1766.72
-1747.25
-1727.83
-1708.46
-1689.14
-1669.9
-2572.92
-2562.26
-2551.3
-2540.02
-2528.45
-2516.56
-2504.37
-2491.86
-2479.06
-2465.94
-2452.52
-2438.8
-2424.78
-2410.45
-2395.83
-2380.92
-2365.71
-2350.22
-2334.45
-2318.39
-2302.07
-2285.48
-2268.63
-2251.52
-2234.17
-2216.57
-2198.74
-2180.69
-2162.42
-2143.94
-2125.27
-2106.41
-2087.37
-2068.17
-2048.81
-2029.3
-2009.66
-1989.9
-1970.03
-1950.06
-1930.01
-1909.89
-1889.7
-1869.47
-1849.21
-1828.93
-1808.64
-1788.35
-1768.08
-1747.84
-1727.65
-1707.51
-1687.44
-1667.45
-2593.32
-2582.55
-2571.46
-2560.05
-2548.33
-2536.28
-2523.92
-2511.23
-2498.22
-2484.89
-2471.24
-2457.27
-2442.99
-2428.39
-2413.49
-2398.27
-2382.75
-2366.92
-2350.8
-2334.39
-2317.69
-2300.71
-2283.45
-2265.93
-2248.14
-2230.1
-2211.82
-2193.3
-2174.55
-2155.58
-2136.4
-2117.02
-2097.46
-2077.72
-2057.81
-2037.75
-2017.56
-1997.23
-1976.78
-1956.24
-1935.61
-1914.9
-1894.12
-1873.31
-1852.45
-1831.58
-1810.7
-1789.82
-1768.97
-1748.15
-1727.38
-1706.68
-1686.04
-1665.5
-2608.15
-2597.31
-2586.14
-2574.64
-2562.81
-2550.65
-2538.16
-2525.34
-2512.19
-2498.71
-2484.89
-2470.75
-2456.28
-2441.49
-2426.37
-2410.94
-2395.19
-2379.12
-2362.75
-2346.08
-2329.11
-2311.84
-2294.29
-2276.46
-2258.36
-2240
-2221.38
-2202.51
-2183.41
-2164.07
-2144.53
-2124.77
-2104.82
-2084.69
-2064.38
-2043.92
-2023.31
-2002.56
-1981.7
-1960.73
-1939.66
-1918.52
-1897.32
-1876.06
-1854.77
-1833.46
-1812.15
-1790.84
-1769.56
-1748.31
-1727.12
-1705.99
-1684.94
-1663.99
-2618.86
-2607.97
-2596.74
-2585.18
-2573.28
-2561.04
-2548.46
-2535.55
-2522.29
-2508.7
-2494.77
-2480.5
-2465.9
-2450.97
-2435.7
-2420.11
-2404.19
-2387.96
-2371.4
-2354.54
-2337.37
-2319.9
-2302.14
-2284.09
-2265.76
-2247.16
-2228.3
-2209.18
-2189.82
-2170.23
-2150.41
-2130.38
-2110.15
-2089.73
-2069.13
-2048.37
-2027.46
-2006.41
-1985.24
-1963.96
-1942.58
-1921.13
-1899.61
-1878.04
-1856.43
-1834.8
-1813.17
-1791.55
-1769.95
-1748.4
-1726.89
-1705.46
-1684.11
-1662.85
-2626.56
-2615.63
-2604.36
-2592.75
-2580.79
-2568.5
-2555.86
-2542.88
-2529.55
-2515.88
-2501.87
-2487.52
-2472.82
-2457.78
-2442.41
-2426.71
-2410.68
-2394.31
-2377.63
-2360.63
-2343.32
-2325.71
-2307.79
-2289.58
-2271.09
-2252.32
-2233.28
-2213.99
-2194.44
-2174.66
-2154.65
-2134.42
-2113.99
-2093.36
-2072.55
-2051.58
-2030.45
-2009.18
-1987.79
-1966.28
-1944.68
-1923
-1901.25
-1879.45
-1857.61
-1835.75
-1813.89
-1792.04
-1770.22
-1748.44
-1726.71
-1705.05
-1683.48
-1662.01
-2636.72
-2625.74
-2614.42
-2602.75
-2590.73
-2578.37
-2565.65
-2552.58
-2539.16
-2525.39
-2511.26
-2496.79
-2481.97
-2466.8
-2451.29
-2435.44
-2419.25
-2402.73
-2385.87
-2368.69
-2351.2
-2333.39
-2315.27
-2296.85
-2278.14
-2259.15
-2239.88
-2220.35
-2200.56
-2180.52
-2160.25
-2139.76
-2119.06
-2098.16
-2077.07
-2055.81
-2034.4
-2012.84
-1991.15
-1969.35
-1947.44
-1925.46
-1903.41
-1881.3
-1859.16
-1837
-1814.83
-1792.68
-1770.56
-1748.47
-1726.45
-1704.5
-1682.64
-1660.88
-2650.9
-2639.86
-2628.47
-2616.72
-2604.61
-2592.15
-2579.32
-2566.13
-2552.58
-2538.67
-2524.4
-2509.76
-2494.77
-2479.42
-2463.72
-2447.66
-2431.25
-2414.5
-2397.41
-2379.98
-2362.23
-2344.14
-2325.74
-2307.04
-2288.02
-2268.72
-2249.12
-2229.26
-2209.12
-2188.74
-2168.11
-2147.24
-2126.16
-2104.88
-2083.4
-2061.74
-2039.92
-2017.95
-1995.84
-1973.62
-1951.29
-1928.88
-1906.4
-1883.87
-1861.3
-1838.7
-1816.11
-1793.53
-1770.98
-1748.47
-1726.03
-1703.67
-1681.4
-1659.24
-2665.38
-2654.28
-2642.82
-2630.99
-2618.8
-2606.23
-2593.3
-2579.99
-2566.31
-2552.26
-2537.84
-2523.04
-2507.87
-2492.34
-2476.44
-2460.17
-2443.55
-2426.57
-2409.23
-2391.55
-2373.53
-2355.17
-2336.48
-2317.48
-2298.15
-2278.53
-2258.6
-2238.39
-2217.91
-2197.16
-2176.15
-2154.91
-2133.44
-2111.76
-2089.87
-2067.8
-2045.56
-2023.17
-2000.64
-1977.98
-1955.22
-1932.37
-1909.44
-1886.46
-1863.45
-1840.41
-1817.37
-1794.35
-1771.36
-1748.42
-1725.55
-1702.76
-1680.07
-1657.49
-2680.17
-2669.01
-2657.49
-2645.58
-2633.3
-2620.64
-2607.59
-2594.17
-2580.36
-2566.17
-2551.59
-2536.63
-2521.29
-2505.57
-2489.47
-2473
-2456.15
-2438.93
-2421.35
-2403.42
-2385.12
-2366.48
-2347.5
-2328.18
-2308.54
-2288.59
-2268.32
-2247.76
-2226.91
-2205.79
-2184.41
-2162.77
-2140.9
-2118.81
-2096.51
-2074.01
-2051.34
-2028.51
-2005.53
-1982.43
-1959.22
-1935.91
-1912.53
-1889.09
-1865.62
-1842.12
-1818.63
-1795.15
-1771.7
-1748.31
-1724.99
-1701.76
-1678.63
-1655.63
-2695.27
-2684.06
-2672.47
-2660.49
-2648.12
-2635.37
-2622.22
-2608.67
-2594.74
-2580.4
-2565.67
-2550.55
-2535.04
-2519.13
-2502.83
-2486.14
-2469.07
-2451.61
-2433.78
-2415.58
-2397.01
-2378.08
-2358.8
-2339.17
-2319.2
-2298.91
-2278.3
-2257.37
-2236.15
-2214.65
-2192.87
-2170.84
-2148.55
-2126.04
-2103.31
-2080.38
-2057.26
-2033.98
-2010.54
-1986.98
-1963.29
-1939.52
-1915.67
-1891.75
-1867.8
-1843.83
-1819.86
-1795.91
-1772
-1748.14
-1724.36
-1700.67
-1677.1
-1653.65
-2710.7
-2699.44
-2687.78
-2675.73
-2663.28
-2650.43
-2637.17
-2623.51
-2609.45
-2594.97
-2580.09
-2564.81
-2549.11
-2533.01
-2516.51
-2499.61
-2482.31
-2464.61
-2446.53
-2428.06
-2409.21
-2389.98
-2370.39
-2350.44
-2330.14
-2309.5
-2288.53
-2267.24
-2245.64
-2223.74
-2201.56
-2179.11
-2156.4
-2133.45
-2110.28
-2086.89
-2063.32
-2039.57
-2015.66
-1991.62
-1967.45
-1943.19
-1918.85
-1894.45
-1870.01
-1845.54
-1821.08
-1796.64
-1772.24
-1747.9
-1723.65
-1699.49
-1675.45
-1651.54
-2726.46
-2715.15
-2703.43
-2691.31
-2678.78
-2665.84
-2652.48
-2638.7
-2624.51
-2609.89
-2594.86
-2579.41
-2563.54
-2547.25
-2530.54
-2513.42
-2495.88
-2477.94
-2459.6
-2440.85
-2421.72
-2402.19
-2382.29
-2362.01
-2341.38
-2320.38
-2299.04
-2277.37
-2255.38
-2233.08
-2210.48
-2187.6
-2164.45
-2141.06
-2117.43
-2093.58
-2069.53
-2045.29
-2020.9
-1996.36
-1971.7
-1946.93
-1922.09
-1897.18
-1872.23
-1847.25
-1822.29
-1797.34
-1772.44
-1747.6
-1722.85
-1698.2
-1673.68
-1649.31
-2742.56
-2731.2
-2719.43
-2707.24
-2694.63
-2681.6
-2668.14
-2654.25
-2639.93
-2625.17
-2609.99
-2594.37
-2578.32
-2561.83
-2544.92
-2527.58
-2509.81
-2491.62
-2473.01
-2453.99
-2434.56
-2414.73
-2394.51
-2373.9
-2352.91
-2331.55
-2309.84
-2287.78
-2265.38
-2242.66
-2219.64
-2196.32
-2172.72
-2148.86
-2124.76
-2100.43
-2075.89
-2051.16
-2026.26
-2001.21
-1976.03
-1950.75
-1925.38
-1899.94
-1874.46
-1848.96
-1823.47
-1798
-1772.58
-1747.23
-1721.96
-1696.81
-1671.8
-1646.93
-2759.01
-2747.61
-2735.79
-2723.53
-2710.85
-2697.72
-2684.16
-2670.16
-2655.71
-2640.82
-2625.48
-2609.69
-2593.46
-2576.78
-2559.66
-2542.1
-2524.09
-2505.65
-2486.77
-2467.47
-2447.75
-2427.6
-2407.05
-2386.1
-2364.76
-2343.03
-2320.93
-2298.47
-2275.66
-2252.51
-2229.05
-2205.27
-2181.21
-2156.88
-2132.29
-2107.46
-2082.41
-2057.17
-2031.75
-2006.17
-1980.46
-1954.63
-1928.72
-1902.74
-1876.71
-1850.67
-1824.63
-1798.62
-1772.66
-1746.77
-1720.98
-1695.31
-1669.78
-1644.41
-2775.82
-2764.38
-2752.51
-2740.19
-2727.43
-2714.22
-2700.56
-2686.45
-2671.87
-2656.84
-2641.35
-2625.4
-2608.99
-2592.12
-2574.78
-2556.99
-2538.75
-2520.05
-2500.9
-2481.31
-2461.29
-2440.83
-2419.94
-2398.64
-2376.93
-2354.82
-2332.32
-2309.45
-2286.22
-2262.63
-2238.72
-2214.48
-2189.94
-2165.11
-2140.02
-2114.68
-2089.11
-2063.33
-2037.37
-2011.24
-1984.98
-1958.59
-1932.12
-1905.57
-1878.98
-1852.37
-1825.77
-1799.2
-1772.68
-1746.23
-1719.9
-1693.69
-1667.62
-1641.73
-2793
-2781.52
-2769.6
-2757.23
-2744.4
-2731.11
-2717.35
-2703.12
-2688.43
-2673.26
-2657.62
-2641.5
-2624.91
-2607.84
-2590.3
-2572.28
-2553.79
-2534.83
-2515.41
-2495.53
-2475.2
-2454.41
-2433.18
-2411.52
-2389.44
-2366.94
-2344.04
-2320.75
-2297.08
-2273.04
-2248.66
-2223.94
-2198.9
-2173.57
-2147.96
-2122.09
-2095.98
-2069.65
-2043.13
-2016.44
-1989.6
-1962.64
-1935.58
-1908.45
-1881.27
-1854.07
-1826.88
-1799.73
-1772.63
-1745.61
-1718.71
-1691.93
-1665.32
-1638.89
-2810.55
-2799.05
-2787.08
-2774.65
-2761.76
-2748.39
-2734.53
-2720.2
-2705.39
-2690.08