/*--------------------------------*- C++ -*----------------------------------*\
  =========                 |
  \\      /  F ield         | OpenFOAM: The Open Source CFD Toolbox
   \\    /   O peration     | Website:  https://openfoam.org
    \\  /    A nd           | Version:  7
     \\/     M anipulation  |
\*---------------------------------------------------------------------------*/
FoamFile
{
    version     2.0;
    format      ascii;
    class       volScalarField;
    location    "0/insulator";
    object      voltIrho;
}
// * * * * * * * * * * * * * * * * * * * * * * * * * * * * * * * * * * * * * //

dimensions      [1 2 -3 0 0 -1 0];

internalField   nonuniform List<scalar> 
98782
(
-22.4202
-20.9473
-19.5857
-18.8831
-18.5695
-18.4286
-18.3636
-18.3329
-18.3183
-18.3113
-18.3076
-18.3047
-18.3018
-18.2989
-18.296
-18.2932
-18.2903
-18.2875
-18.2846
-18.2818
-18.279
-22.5499
-21.1927
-19.6585
-18.7051
-18.2539
-18.0487
-17.9538
-17.9091
-17.8878
-17.8775
-17.8721
-17.8679
-17.8637
-17.8595
-17.8554
-17.8512
-17.847
-17.8429
-17.8387
-17.8346
-17.8305
-22.7017
-21.5331
-19.8827
-18.5465
-17.8418
-17.5111
-17.3568
-17.2839
-17.2492
-17.2325
-17.2236
-17.2168
-17.2099
-17.2031
-17.1963
-17.1895
-17.1827
-17.1759
-17.1692
-17.1625
-17.1557
-22.8351
-21.8775
-20.2612
-18.5381
-17.4785
-16.9551
-16.7068
-16.5887
-16.5323
-16.5052
-16.4908
-16.4796
-16.4685
-16.4574
-16.4463
-16.4353
-16.4242
-16.4132
-16.4022
-16.3912
-16.3802
-22.9403
-22.1764
-20.722
-18.7315
-17.2653
-16.4902
-16.1133
-15.9325
-15.8457
-15.8039
-15.7817
-15.7645
-15.7473
-15.7301
-15.713
-15.6959
-15.6788
-15.6617
-15.6447
-15.6276
-15.6106
-23.0191
-22.4142
-21.1807
-19.0907
-17.2408
-16.1819
-15.6516
-15.3942
-15.2699
-15.21
-15.1781
-15.1534
-15.1287
-15.104
-15.0793
-15.0547
-15.03
-15.0054
-14.9808
-14.9562
-14.9316
-23.0766
-22.5939
-21.5826
-19.5307
-17.3802
-16.0402
-15.3479
-15.0076
-14.8424
-14.7625
-14.72
-14.687
-14.654
-14.6209
-14.5879
-14.5549
-14.5219
-14.4889
-14.4558
-14.4228
-14.3898
-23.118
-22.7259
-21.9076
-19.9708
-17.6222
-16.0317
-15.1854
-14.7643
-14.5589
-14.4592
-14.4061
-14.3649
-14.3236
-14.2823
-14.2409
-14.1996
-14.1582
-14.1167
-14.0753
-14.0338
-13.9923
-23.1476
-22.8213
-22.1579
-20.3612
-17.9024
-16.1057
-15.1247
-14.6316
-14.39
-14.2725
-14.2099
-14.1611
-14.1124
-14.0635
-14.0146
-13.9656
-13.9165
-13.8674
-13.8183
-13.769
-13.7197
-23.1687
-22.8896
-22.3447
-20.6821
-18.1737
-16.2162
-15.1243
-14.5713
-14.2994
-14.1671
-14.0964
-14.0415
-13.9864
-13.9312
-13.8759
-13.8205
-13.765
-13.7094
-13.6538
-13.598
-13.5421
-23.1837
-22.9384
-22.4817
-20.9333
-18.4107
-16.3322
-15.1522
-14.5519
-14.256
-14.1119
-14.0349
-13.975
-13.915
-13.8548
-13.7945
-13.7341
-13.6735
-13.6128
-13.552
-13.491
-13.43
-23.1943
-22.973
-22.5809
-21.1237
-18.6045
-16.4372
-15.1889
-14.5521
-14.238
-14.0849
-14.0031
-13.9395
-13.8757
-13.8118
-13.7477
-13.6834
-13.619
-13.5545
-13.4898
-13.4249
-13.36
-23.2019
-22.9976
-22.6522
-21.2649
-18.7562
-16.5246
-15.2243
-14.56
-14.2323
-14.0726
-13.9873
-13.9209
-13.8543
-13.7876
-13.7207
-13.6537
-13.5865
-13.5191
-13.4516
-13.3839
-13.3161
-23.2072
-23.015
-22.7032
-21.3683
-18.8714
-16.5937
-15.2545
-14.5697
-14.232
-14.0674
-13.9795
-13.9111
-13.8425
-13.7738
-13.7049
-13.6358
-13.5666
-13.4972
-13.4277
-13.358
-13.2881
-23.211
-23.0274
-22.7395
-21.4431
-18.957
-16.6466
-15.2786
-14.5786
-14.2336
-14.0655
-13.9758
-13.9059
-13.8359
-13.7657
-13.6954
-13.6249
-13.5542
-13.4834
-13.4124
-13.3412
-13.2699
-23.2137
-23.0362
-22.7654
-21.4969
-19.0198
-16.6861
-15.297
-14.5861
-14.2357
-14.0651
-13.974
-13.9031
-13.832
-13.7608
-13.6894
-13.6179
-13.5462
-13.4744
-13.4024
-13.3302
-13.2579
-23.2156
-23.0424
-22.7838
-21.5355
-19.0654
-16.7152
-15.3107
-14.5918
-14.2377
-14.0653
-13.9732
-13.9015
-13.8297
-13.7578
-13.6857
-13.6134
-13.541
-13.4684
-13.3957
-13.3228
-13.2497
-23.2169
-23.0468
-22.7969
-21.563
-19.0982
-16.7364
-15.3208
-14.5962
-14.2393
-14.0656
-13.9728
-13.9006
-13.8283
-13.7558
-13.6832
-13.6104
-13.5375
-13.4644
-13.3911
-13.3177
-13.2442
-23.2179
-23.0499
-22.8062
-21.5826
-19.1217
-16.7516
-15.3281
-14.5994
-14.2406
-14.0659
-13.9726
-13.9001
-13.8274
-13.7545
-13.6815
-13.6084
-13.5351
-13.4616
-13.388
-13.3143
-13.2404
-23.2186
-23.0521
-22.8127
-21.5965
-19.1386
-16.7626
-15.3334
-14.6018
-14.2415
-14.0662
-13.9726
-13.8998
-13.8268
-13.7537
-13.6804
-13.607
-13.5334
-13.4597
-13.3859
-13.3119
-13.2377
-23.2195
-23.055
-22.8213
-21.6148
-19.1607
-16.7771
-15.3404
-14.6049
-14.2428
-14.0666
-13.9725
-13.8994
-13.8261
-13.7526
-13.679
-13.6052
-13.5313
-13.4573
-13.3831
-13.3088
-13.2343
-23.2207
-23.059
-22.8331
-21.64
-19.1914
-16.7973
-15.3503
-14.6093
-14.2447
-14.0673
-13.9726
-13.899
-13.8252
-13.7512
-13.6772
-13.6029
-13.5286
-13.4541
-13.3794
-13.3046
-13.2297
-23.2219
-23.0629
-22.8449
-21.6653
-19.2224
-16.8179
-15.3603
-14.614
-14.2468
-14.0682
-13.9728
-13.8987
-13.8244
-13.75
-13.6755
-13.6008
-13.526
-13.451
-13.3759
-13.3007
-13.2253
-23.2231
-23.0669
-22.8567
-21.6907
-19.2539
-16.8389
-15.3707
-14.6188
-14.249
-14.0692
-13.9732
-13.8986
-13.8238
-13.7489
-13.6739
-13.5987
-13.5234
-13.448
-13.3725
-13.2968
-13.221
-23.2243
-23.0708
-22.8686
-21.7162
-19.2858
-16.8604
-15.3813
-14.6238
-14.2514
-14.0703
-13.9737
-13.8986
-13.8233
-13.7479
-13.6724
-13.5968
-13.5211
-13.4452
-13.3692
-13.2931
-13.2168
-23.2255
-23.0748
-22.8804
-21.742
-19.3181
-16.8822
-15.3922
-14.6289
-14.2539
-14.0716
-13.9743
-13.8987
-13.8229
-13.7471
-13.6711
-13.595
-13.5188
-13.4424
-13.366
-13.2894
-13.2127
-23.2267
-23.0787
-22.8923
-21.7678
-19.3508
-16.9046
-15.4033
-14.6343
-14.2565
-14.0729
-13.975
-13.8989
-13.8226
-13.7463
-13.6698
-13.5933
-13.5166
-13.4398
-13.3629
-13.2859
-13.2088
-23.2279
-23.0827
-22.9042
-21.7938
-19.3839
-16.9274
-15.4147
-14.6397
-14.2593
-14.0744
-13.9758
-13.8992
-13.8225
-13.7456
-13.6687
-13.5917
-13.5145
-13.4373
-13.3599
-13.2825
-13.205
-23.2291
-23.0866
-22.9161
-21.82
-19.4175
-16.9506
-15.4263
-14.6454
-14.2621
-14.076
-13.9768
-13.8996
-13.8224
-13.7451
-13.6676
-13.5901
-13.5125
-13.4348
-13.3571
-13.2792
-13.2012
-23.2304
-23.0906
-22.9281
-21.8463
-19.4515
-16.9743
-15.4383
-14.6512
-14.2651
-14.0777
-13.9778
-13.9001
-13.8224
-13.7446
-13.6667
-13.5887
-13.5106
-13.4325
-13.3543
-13.276
-13.1976
-23.2316
-23.0946
-22.94
-21.8727
-19.4859
-16.9985
-15.4505
-14.6572
-14.2682
-14.0795
-13.9789
-13.9007
-13.8225
-13.7441
-13.6657
-13.5873
-13.5088
-13.4302
-13.3515
-13.2728
-13.194
-23.2328
-23.0985
-22.952
-21.8993
-19.5208
-17.0232
-15.463
-14.6633
-14.2715
-14.0814
-13.9801
-13.9014
-13.8226
-13.7438
-13.6649
-13.586
-13.507
-13.4279
-13.3489
-13.2697
-13.1905
-23.234
-23.1025
-22.964
-21.926
-19.5561
-17.0484
-15.4758
-14.6696
-14.2748
-14.0833
-13.9813
-13.9021
-13.8228
-13.7435
-13.6641
-13.5847
-13.5052
-13.4258
-13.3462
-13.2667
-13.1871
-23.2352
-23.1064
-22.976
-21.9529
-19.5918
-17.0742
-15.4888
-14.676
-14.2781
-14.0853
-13.9826
-13.9028
-13.823
-13.7432
-13.6633
-13.5834
-13.5035
-13.4236
-13.3436
-13.2637
-13.1837
-23.2364
-23.1104
-22.988
-21.9799
-19.6281
-17.1004
-15.5022
-14.6825
-14.2816
-14.0874
-13.9839
-13.9036
-13.8233
-13.7429
-13.6626
-13.5822
-13.5018
-13.4215
-13.3411
-13.2607
-13.1803
-23.2376
-23.1144
-23
-22.007
-19.6647
-17.1272
-15.5158
-14.6892
-14.2852
-14.0895
-13.9853
-13.9045
-13.8236
-13.7427
-13.6618
-13.581
-13.5002
-13.4193
-13.3385
-13.2577
-13.177
-23.2388
-23.1183
-23.0121
-22.0343
-19.7019
-17.1545
-15.5297
-14.696
-14.2887
-14.0916
-13.9867
-13.9053
-13.8239
-13.7425
-13.6611
-13.5798
-13.4985
-13.4172
-13.336
-13.2548
-13.1736
-23.2401
-23.1223
-23.0242
-22.0618
-19.7395
-17.1824
-15.544
-14.703
-14.2924
-14.0938
-13.9881
-13.9061
-13.8241
-13.7422
-13.6603
-13.5785
-13.4967
-13.415
-13.3333
-13.2518
-13.1702
-23.2413
-23.1262
-23.0363
-22.0894
-19.7776
-17.2108
-15.5585
-14.71
-14.2961
-14.0959
-13.9895
-13.9069
-13.8244
-13.7419
-13.6595
-13.5772
-13.4949
-13.4128
-13.3307
-13.2487
-13.1668
-23.2425
-23.1302
-23.0484
-22.1171
-19.8162
-17.2399
-15.5733
-14.7172
-14.2998
-14.0981
-13.9909
-13.9077
-13.8246
-13.7416
-13.6586
-13.5758
-13.4931
-13.4105
-13.328
-13.2456
-13.1633
-23.2437
-23.1341
-23.0605
-22.145
-19.8552
-17.2695
-15.5885
-14.7244
-14.3035
-14.1002
-13.9922
-13.9084
-13.8247
-13.7411
-13.6576
-13.5743
-13.4911
-13.408
-13.3251
-13.2423
-13.1597
-23.2449
-23.1381
-23.0726
-22.173
-19.8948
-17.2997
-15.604
-14.7318
-14.3072
-14.1023
-13.9934
-13.909
-13.8247
-13.7406
-13.6566
-13.5727
-13.489
-13.4055
-13.3222
-13.239
-13.156
-23.2461
-23.1421
-23.0848
-22.2011
-19.9348
-17.3306
-15.6197
-14.7392
-14.3109
-14.1043
-13.9946
-13.9095
-13.8247
-13.7399
-13.6553
-13.571
-13.4868
-13.4028
-13.319
-13.2355
-13.1521
-23.2473
-23.146
-23.0969
-22.2294
-19.9753
-17.3621
-15.6359
-14.7468
-14.3145
-14.1062
-13.9956
-13.91
-13.8244
-13.7391
-13.654
-13.5691
-13.4844
-13.3999
-13.3157
-13.2318
-13.1481
-23.2486
-23.15
-23.1091
-22.2579
-20.0164
-17.3943
-15.6523
-14.7544
-14.3182
-14.1081
-13.9966
-13.9102
-13.8241
-13.7381
-13.6524
-13.5669
-13.4817
-13.3968
-13.3122
-13.2278
-13.1438
-23.2498
-23.1539
-23.1213
-22.2865
-20.0579
-17.4272
-15.6691
-14.7621
-14.3217
-14.1098
-13.9974
-13.9103
-13.8235
-13.7369
-13.6506
-13.5646
-13.4789
-13.3935
-13.3084
-13.2237
-13.1393
-23.251
-23.1579
-23.1335
-22.3152
-20.1
-17.4607
-15.6863
-14.7698
-14.3252
-14.1114
-13.998
-13.9102
-13.8227
-13.7355
-13.6485
-13.562
-13.4757
-13.3898
-13.3043
-13.2192
-13.1344
-23.2522
-23.1619
-23.1458
-22.344
-20.1426
-17.495
-15.7038
-14.7776
-14.3285
-14.1128
-13.9984
-13.9099
-13.8217
-13.7338
-13.6462
-13.559
-13.4722
-13.3859
-13.2999
-13.2144
-13.1293
-23.2534
-23.1658
-23.158
-22.373
-20.1857
-17.5299
-15.7217
-14.7854
-14.3318
-14.114
-13.9986
-13.9093
-13.8203
-13.7318
-13.6435
-13.5558
-13.4684
-13.3815
-13.2951
-13.2091
-13.1237
-23.2546
-23.1698
-23.1703
-22.4022
-20.2293
-17.5657
-15.74
-14.7933
-14.3349
-14.115
-13.9985
-13.9084
-13.8187
-13.7294
-13.6405
-13.5521
-13.4642
-13.3767
-13.2898
-13.2035
-13.1177
-23.2558
-23.1737
-23.1825
-22.4315
-20.2735
-17.6022
-15.7586
-14.8012
-14.3379
-14.1157
-13.9981
-13.9072
-13.8167
-13.7267
-13.6371
-13.548
-13.4595
-13.3715
-13.2841
-13.1973
-13.1112
-23.2571
-23.1777
-23.1948
-22.4609
-20.3182
-17.6394
-15.7777
-14.8091
-14.3406
-14.1162
-13.9974
-13.9057
-13.8144
-13.7235
-13.6332
-13.5435
-13.4543
-13.3658
-13.2779
-13.1906
-13.1041
-23.2583
-23.1817
-23.2071
-22.4904
-20.3635
-17.6775
-15.7972
-14.817
-14.3432
-14.1164
-13.9964
-13.9038
-13.8116
-13.7199
-13.6289
-13.5384
-13.4486
-13.3594
-13.271
-13.1833
-13.0964
-23.2595
-23.1856
-23.2194
-22.5201
-20.4093
-17.7164
-15.8172
-14.825
-14.3456
-14.1162
-13.995
-13.9014
-13.8083
-13.7158
-13.624
-13.5327
-13.4422
-13.3525
-13.2635
-13.1753
-13.088
-23.2607
-23.1896
-23.2317
-22.55
-20.4556
-17.7562
-15.8375
-14.8329
-14.3477
-14.1157
-13.9932
-13.8986
-13.8046
-13.7112
-13.6185
-13.5265
-13.4352
-13.3448
-13.2553
-13.1666
-13.0789
-23.2619
-23.1935
-23.2441
-22.5799
-20.5025
-17.7968
-15.8584
-14.8409
-14.3496
-14.1148
-13.9909
-13.8953
-13.8003
-13.7059
-13.6123
-13.5195
-13.4275
-13.3364
-13.2463
-13.1571
-13.0689
-23.2631
-23.1975
-23.2564
-22.61
-20.55
-17.8383
-15.8798
-14.8489
-14.3512
-14.1135
-13.9881
-13.8914
-13.7954
-13.7
-13.6055
-13.5118
-13.419
-13.3272
-13.2364
-13.1467
-13.058
-23.2643
-23.2014
-23.2688
-22.6403
-20.5981
-17.8808
-15.9017
-14.8568
-14.3524
-14.1118
-13.9848
-13.887
-13.7898
-13.6934
-13.5979
-13.5033
-13.4097
-13.3171
-13.2256
-13.1353
-13.0461
-23.2656
-23.2054
-23.2812
-22.6707
-20.6467
-17.9242
-15.9241
-14.8648
-14.3534
-14.1096
-13.981
-13.8819
-13.7836
-13.6861
-13.5895
-13.4939
-13.3994
-13.306
-13.2138
-13.1228
-13.0331
-23.2668
-23.2094
-23.2935
-22.7012
-20.6959
-17.9685
-15.9471
-14.8727
-14.354
-14.1068
-13.9765
-13.8762
-13.7766
-13.6779
-13.5803
-13.4836
-13.3882
-13.2939
-13.2009
-13.1092
-13.019
-23.268
-23.2133
-23.3059
-22.7318
-20.7457
-18.0139
-15.9707
-14.8806
-14.3543
-14.1035
-13.9714
-13.8697
-13.7688
-13.6689
-13.5701
-13.4723
-13.3758
-13.2806
-13.1868
-13.0944
-13.0035
-23.2692
-23.2173
-23.3183
-22.7626
-20.796
-18.0603
-15.9949
-14.8886
-14.3541
-14.0996
-13.9656
-13.8625
-13.7602
-13.659
-13.5589
-13.46
-13.3624
-13.2661
-13.1714
-13.0782
-12.9867
-23.2704
-23.2212
-23.3308
-22.7935
-20.847
-18.1077
-16.0198
-14.8965
-14.3536
-14.0951
-13.9591
-13.8544
-13.7507
-13.6481
-13.5466
-13.4464
-13.3477
-13.2504
-13.1546
-13.0606
-12.9683
-23.2716
-23.2252
-23.3432
-22.8245
-20.8985
-18.1562
-16.0453
-14.9045
-14.3526
-14.09
-13.9518
-13.8455
-13.7402
-13.6361
-13.5332
-13.4317
-13.3317
-13.2332
-13.1364
-13.0414
-12.9483
-23.2728
-23.2291
-23.3556
-22.8557
-20.9507
-18.2059
-16.0717
-14.9125
-14.3512
-14.0842
-13.9437
-13.8357
-13.7288
-13.623
-13.5186
-13.4156
-13.3142
-13.2145
-13.1166
-13.0206
-12.9266
-23.2741
-23.2331
-23.3681
-22.8869
-21.0034
-18.2567
-16.0988
-14.9205
-14.3493
-14.0777
-13.9348
-13.825
-13.7162
-13.6088
-13.5027
-13.3982
-13.2953
-13.1943
-13.0951
-12.998
-12.903
-23.2753
-23.237
-23.3805
-22.9184
-21.0568
-18.3086
-16.1267
-14.9285
-14.347
-14.0704
-13.925
-13.8132
-13.7026
-13.5933
-13.4855
-13.3793
-13.2749
-13.1723
-13.0718
-12.9735
-12.8774
-23.2765
-23.241
-23.393
-22.9499
-21.1108
-18.3618
-16.1555
-14.9367
-14.3442
-14.0624
-13.9142
-13.8004
-13.6877
-13.5765
-13.4668
-13.3588
-13.2527
-13.1486
-13.0466
-12.9469
-12.8497
-23.2777
-23.2449
-23.4055
-22.9816
-21.1653
-18.4163
-16.1852
-14.945
-14.341
-14.0536
-13.9025
-13.7865
-13.6717
-13.5583
-13.4466
-13.3367
-13.2287
-13.1229
-13.0193
-12.9182
-12.8197
-23.2789
-23.2489
-23.418
-23.0134
-21.2206
-18.472
-16.2159
-14.9533
-14.3372
-14.044
-13.8899
-13.7714
-13.6543
-13.5388
-13.4249
-13.3129
-13.2029
-13.0952
-12.9899
-12.8872
-12.7873
-23.2801
-23.2528
-23.4304
-23.0453
-21.2764
-18.529
-16.2477
-14.9619
-14.333
-14.0335
-13.8761
-13.7552
-13.6356
-13.5177
-13.4015
-13.2872
-13.1751
-13.0654
-12.9582
-12.8538
-12.7522
-23.2814
-23.2568
-23.4429
-23.0773
-21.3328
-18.5874
-16.2806
-14.9706
-14.3283
-14.0222
-13.8613
-13.7377
-13.6156
-13.495
-13.3763
-13.2597
-13.1453
-13.0333
-12.9241
-12.8177
-12.7145
-23.2826
-23.2607
-23.4555
-23.1095
-21.3899
-18.6471
-16.3147
-14.9797
-14.3231
-14.0101
-13.8455
-13.719
-13.594
-13.4707
-13.3493
-13.2301
-13.1132
-12.9989
-12.8874
-12.779
-12.6738
-23.2838
-23.2647
-23.468
-23.1418
-21.4476
-18.7083
-16.3501
-14.989
-14.3175
-13.997
-13.8285
-13.699
-13.571
-13.4448
-13.3205
-13.1984
-13.0788
-12.962
-12.848
-12.7373
-12.63
-23.285
-23.2686
-23.4805
-23.1742
-21.506
-18.771
-16.3868
-14.9987
-14.3115
-13.9831
-13.8104
-13.6777
-13.5465
-13.417
-13.2897
-13.1646
-13.0421
-12.9224
-12.8058
-12.6926
-12.583
-23.2862
-23.2726
-23.493
-23.2067
-21.565
-18.8352
-16.4249
-15.0088
-14.305
-13.9683
-13.7912
-13.655
-13.5203
-13.3875
-13.2568
-13.1285
-13.0028
-12.8801
-12.7607
-12.6447
-12.5326
-23.2874
-23.2765
-23.5056
-23.2393
-21.6246
-18.9009
-16.4646
-15.0194
-14.2982
-13.9527
-13.7708
-13.6309
-13.4926
-13.3562
-13.2219
-13.09
-12.961
-12.835
-12.7124
-12.5934
-12.4785
-18.2761
-18.2732
-18.2704
-18.2675
-18.2646
-18.2618
-18.2589
-18.2561
-18.2533
-18.2504
-18.2476
-18.2448
-18.242
-18.2392
-18.2364
-18.2336
-18.2308
-18.228
-18.2253
-18.2225
-18.2197
-18.217
-18.2142
-18.2115
-18.2088
-18.206
-18.2033
-18.2006
-18.1979
-18.1952
-18.1925
-18.1898
-18.1871
-18.1844
-18.1818
-18.1791
-18.1764
-18.1738
-18.1711
-18.1685
-18.1659
-18.1632
-18.1606
-18.158
-18.1554
-18.1528
-18.1502
-18.1476
-18.145
-18.1425
-18.1399
-18.1373
-18.1348
-18.1322
-17.8263
-17.8221
-17.818
-17.8138
-17.8097
-17.8055
-17.8014
-17.7973
-17.7931
-17.789
-17.7849
-17.7809
-17.7768
-17.7727
-17.7687
-17.7646
-17.7606
-17.7566
-17.7525
-17.7485
-17.7445
-17.7406
-17.7366
-17.7326
-17.7287
-17.7247
-17.7208
-17.7169
-17.713
-17.7091
-17.7052
-17.7013
-17.6974
-17.6936
-17.6897
-17.6859
-17.682
-17.6782
-17.6744
-17.6706
-17.6669
-17.6631
-17.6593
-17.6556
-17.6518
-17.6481
-17.6444
-17.6407
-17.637
-17.6333
-17.6296
-17.626
-17.6223
-17.6187
-17.149
-17.1421
-17.1353
-17.1285
-17.1218
-17.115
-17.1083
-17.1016
-17.0949
-17.0882
-17.0815
-17.0748
-17.0682
-17.0616
-17.055
-17.0484
-17.0418
-17.0353
-17.0287
-17.0222
-17.0157
-17.0092
-17.0028
-16.9963
-16.9899
-16.9835
-16.9771
-16.9707
-16.9644
-16.9581
-16.9517
-16.9454
-16.9392
-16.9329
-16.9267
-16.9205
-16.9143
-16.9081
-16.9019
-16.8958
-16.8897
-16.8836
-16.8775
-16.8715
-16.8654
-16.8594
-16.8534
-16.8475
-16.8415
-16.8356
-16.8297
-16.8238
-16.8179
-16.8121
-16.3692
-16.3581
-16.347
-16.3359
-16.3248
-16.3138
-16.3028
-16.2918
-16.2809
-16.2699
-16.259
-16.2482
-16.2373
-16.2265
-16.2157
-16.205
-16.1942
-16.1835
-16.1728
-16.1622
-16.1516
-16.141
-16.1304
-16.1199
-16.1094
-16.0989
-16.0885
-16.078
-16.0677
-16.0573
-16.047
-16.0367
-16.0265
-16.0163
-16.0061
-15.9959
-15.9858
-15.9757
-15.9657
-15.9557
-15.9457
-15.9358
-15.9258
-15.916
-15.9061
-15.8964
-15.8866
-15.8769
-15.8672
-15.8575
-15.8479
-15.8384
-15.8288
-15.8193
-15.5935
-15.5763
-15.559
-15.5418
-15.5247
-15.5075
-15.4904
-15.4734
-15.4563
-15.4393
-15.4224
-15.4054
-15.3885
-15.3717
-15.3548
-15.338
-15.3213
-15.3046
-15.2879
-15.2713
-15.2547
-15.2382
-15.2217
-15.2052
-15.1888
-15.1724
-15.1561
-15.1398
-15.1236
-15.1074
-15.0913
-15.0752
-15.0592
-15.0432
-15.0273
-15.0114
-14.9956
-14.9798
-14.9641
-14.9484
-14.9328
-14.9172
-14.9017
-14.8863
-14.8709
-14.8556
-14.8403
-14.8251
-14.81
-14.7949
-14.7799
-14.7649
-14.75
-14.7352
-14.9069
-14.8819
-14.857
-14.8321
-14.8072
-14.7824
-14.7575
-14.7328
-14.708
-14.6833
-14.6587
-14.634
-14.6094
-14.5849
-14.5604
-14.5359
-14.5115
-14.4872
-14.4629
-14.4386
-14.4144
-14.3902
-14.3661
-14.3421
-14.3181
-14.2941
-14.2703
-14.2464
-14.2227
-14.199
-14.1754
-14.1518
-14.1283
-14.1049
-14.0816
-14.0583
-14.0351
-14.012
-13.9889
-13.9659
-13.943
-13.9202
-13.8975
-13.8748
-13.8522
-13.8298
-13.8074
-13.785
-13.7628
-13.7407
-13.7186
-13.6967
-13.6748
-13.6531
-14.3565
-14.3229
-14.2894
-14.2558
-14.2223
-14.1888
-14.1553
-14.1218
-14.0884
-14.055
-14.0216
-13.9883
-13.955
-13.9217
-13.8885
-13.8553
-13.8222
-13.7891
-13.7561
-13.7231
-13.6902
-13.6574
-13.6246
-13.5918
-13.5592
-13.5265
-13.494
-13.4615
-13.4292
-13.3968
-13.3646
-13.3325
-13.3004
-13.2684
-13.2365
-13.2047
-13.173
-13.1414
-13.1098
-13.0784
-13.0471
-13.0159
-12.9848
-12.9538
-12.9229
-12.8921
-12.8615
-12.8309
-12.8005
-12.7702
-12.7401
-12.71
-12.6801
-12.6503
-13.9504
-13.9081
-13.8658
-13.8235
-13.7812
-13.7389
-13.6966
-13.6543
-13.612
-13.5697
-13.5275
-13.4853
-13.443
-13.4009
-13.3587
-13.3166
-13.2745
-13.2324
-13.1904
-13.1485
-13.1066
-13.0647
-13.0229
-12.9812
-12.9395
-12.8979
-12.8563
-12.8149
-12.7735
-12.7322
-12.691
-12.6498
-12.6088
-12.5679
-12.527
-12.4863
-12.4457
-12.4052
-12.3648
-12.3245
-12.2843
-12.2443
-12.2044
-12.1647
-12.125
-12.0856
-12.0462
-12.007
-11.968
-11.9291
-11.8904
-11.8519
-11.8135
-11.7753
-13.6699
-13.6197
-13.5693
-13.5189
-13.4685
-13.4181
-13.3676
-13.3171
-13.2666
-13.2161
-13.1655
-13.115
-13.0644
-13.0139
-12.9633
-12.9128
-12.8623
-12.8118
-12.7613
-12.7108
-12.6604
-12.61
-12.5596
-12.5093
-12.4591
-12.4089
-12.3587
-12.3086
-12.2586
-12.2087
-12.1588
-12.1091
-12.0594
-12.0098
-11.9603
-11.911
-11.8617
-11.8126
-11.7636
-11.7147
-11.6659
-11.6173
-11.5689
-11.5206
-11.4724
-11.4245
-11.3767
-11.329
-11.2816
-11.2343
-11.1873
-11.1404
-11.0937
-11.0473
-13.4856
-13.4286
-13.3714
-13.3142
-13.2569
-13.1995
-13.1421
-13.0846
-13.027
-12.9694
-12.9117
-12.854
-12.7963
-12.7385
-12.6806
-12.6228
-12.5649
-12.507
-12.4491
-12.3912
-12.3333
-12.2754
-12.2175
-12.1596
-12.1018
-12.0439
-11.9861
-11.9284
-11.8706
-11.813
-11.7554
-11.6978
-11.6404
-11.583
-11.5257
-11.4685
-11.4113
-11.3543
-11.2975
-11.2407
-11.1841
-11.1276
-11.0713
-11.0152
-10.9592
-10.9034
-10.8477
-10.7923
-10.7371
-10.6821
-10.6273
-10.5727
-10.5184
-10.4643
-13.3682
-13.3058
-13.2432
-13.1805
-13.1178
-13.0549
-12.9919
-12.9288
-12.8656
-12.8023
-12.739
-12.6755
-12.612
-12.5483
-12.4846
-12.4209
-12.3571
-12.2932
-12.2292
-12.1652
-12.1012
-12.0371
-11.9729
-11.9088
-11.8446
-11.7804
-11.7162
-11.652
-11.5878
-11.5236
-11.4594
-11.3952
-11.3311
-11.267
-11.203
-11.1391
-11.0752
-11.0114
-10.9477
-10.8841
-10.8206
-10.7573
-10.6941
-10.631
-10.5681
-10.5054
-10.4429
-10.3805
-10.3184
-10.2565
-10.1949
-10.1335
-10.0723
-10.0115
-13.2942
-13.2278
-13.1611
-13.0944
-13.0275
-12.9605
-12.8933
-12.826
-12.7586
-12.691
-12.6233
-12.5555
-12.4876
-12.4195
-12.3513
-12.283
-12.2146
-12.1461
-12.0775
-12.0088
-11.94
-11.8711
-11.802
-11.733
-11.6638
-11.5946
-11.5253
-11.4559
-11.3865
-11.3171
-11.2476
-11.1781
-11.1085
-11.039
-10.9695
-10.9
-10.8305
-10.7611
-10.6917
-10.6224
-10.5532
-10.4841
-10.4151
-10.3462
-10.2775
-10.2089
-10.1405
-10.0723
-10.0043
-9.93652
-9.869
-9.80175
-9.73478
-9.66811
-13.2474
-13.178
-13.1085
-13.0387
-12.9689
-12.8988
-12.8286
-12.7583
-12.6878
-12.6171
-12.5463
-12.4753
-12.4041
-12.3328
-12.2614
-12.1898
-12.118
-12.0461
-11.974
-11.9018
-11.8294
-11.7569
-11.6842
-11.6115
-11.5385
-11.4655
-11.3923
-11.319
-11.2456
-11.1721
-11.0985
-11.0248
-10.9511
-10.8772
-10.8034
-10.7295
-10.6556
-10.5816
-10.5077
-10.4338
-10.36
-10.2862
-10.2124
-10.1388
-10.0653
-9.99192
-9.91871
-9.84568
-9.77284
-9.70023
-9.62787
-9.55578
-9.48398
-9.41249
-13.2174
-13.1459
-13.0742
-13.0024
-12.9304
-12.8582
-12.7859
-12.7134
-12.6407
-12.5678
-12.4948
-12.4215
-12.3481
-12.2745
-12.2007
-12.1267
-12.0526
-11.9782
-11.9036
-11.8289
-11.754
-11.6788
-11.6035
-11.528
-11.4523
-11.3764
-11.3004
-11.2241
-11.1477
-11.0712
-10.9945
-10.9177
-10.8407
-10.7636
-10.6864
-10.6091
-10.5318
-10.4544
-10.3769
-10.2994
-10.2219
-10.1444
-10.067
-9.98963
-9.91234
-9.83516
-9.75811
-9.68122
-9.60452
-9.52804
-9.45179
-9.37582
-9.30015
-9.2248
-13.1978
-13.1248
-13.0517
-12.9783
-12.9049
-12.8312
-12.7573
-12.6833
-12.6091
-12.5347
-12.4601
-12.3853
-12.3102
-12.235
-12.1596
-12.0839
-12.0081
-11.932
-11.8557
-11.7791
-11.7024
-11.6254
-11.5481
-11.4707
-11.393
-11.3151
-11.2369
-11.1586
-11.08
-11.0012
-10.9222
-10.843
-10.7637
-10.6841
-10.6045
-10.5246
-10.4447
-10.3646
-10.2845
-10.2042
-10.124
-10.0437
-9.96339
-9.88312
-9.80291
-9.72278
-9.64277
-9.56289
-9.48318
-9.40368
-9.32442
-9.24542
-9.16672
-9.08836
-13.1847
-13.1107
-13.0365
-12.9622
-12.8876
-12.8129
-12.738
-12.6629
-12.5877
-12.5122
-12.4365
-12.3606
-12.2845
-12.2081
-12.1315
-12.0547
-11.9777
-11.9004
-11.8228
-11.745
-11.667
-11.5886
-11.5101
-11.4312
-11.3521
-11.2727
-11.1931
-11.1132
-11.033
-10.9526
-10.872
-10.7911
-10.71
-10.6286
-10.5471
-10.4654
-10.3835
-10.3015
-10.2193
-10.1371
-10.0547
-9.9723
-9.88986
-9.80742
-9.725
-9.64264
-9.56037
-9.47822
-9.39623
-9.31444
-9.23287
-9.15157
-9.07057
-8.9899
-13.1759
-13.1011
-13.0262
-12.9511
-12.8759
-12.8004
-12.7248
-12.649
-12.573
-12.4967
-12.4203
-12.3436
-12.2667
-12.1896
-12.1122
-12.0346
-11.9567
-11.8786
-11.8002
-11.7215
-11.6425
-11.5633
-11.4837
-11.4039
-11.3238
-11.2434
-11.1627
-11.0817
-11.0004
-10.9188
-10.8369
-10.7548
-10.6724
-10.5898
-10.5069
-10.4239
-10.3406
-10.2571
-10.1735
-10.0897
-10.0058
-9.92182
-9.83778
-9.75372
-9.66967
-9.58565
-9.5017
-9.41786
-9.33416
-9.25065
-9.16737
-9.08434
-9.00162
-8.91924
-13.1698
-13.0946
-13.0191
-12.9436
-12.8678
-12.7918
-12.7157
-12.6394
-12.5628
-12.4861
-12.4091
-12.3319
-12.2545
-12.1768
-12.0989
-12.0207
-11.9422
-11.8635
-11.7845
-11.7052
-11.6256
-11.5457
-11.4655
-11.3849
-11.3041
-11.2229
-11.1415
-11.0597
-10.9776
-10.8952
-10.8125
-10.7295
-10.6462
-10.5626
-10.4788
-10.3947
-10.3104
-10.2258
-10.1411
-10.0563
-9.97125
-9.88613
-9.80093
-9.71568
-9.63042
-9.54518
-9.46
-9.37492
-9.28997
-9.2052
-9.12064
-9.03635
-8.95235
-8.8687
-13.1656
-13.09
-13.0142
-12.9383
-12.8622
-12.7859
-12.7094
-12.6327
-12.5558
-12.4786
-12.4013
-12.3237
-12.2459
-12.1679
-12.0896
-12.011
-11.9321
-11.853
-11.7735
-11.6938
-11.6138
-11.5334
-11.4527
-11.3717
-11.2904
-11.2087
-11.1267
-11.0443
-10.9616
-10.8786
-10.7953
-10.7117
-10.6277
-10.5435
-10.4589
-10.3741
-10.2891
-10.2038
-10.1183
-10.0327
-9.94685
-9.86089
-9.77485
-9.68875
-9.60261
-9.51648
-9.43041
-9.34441
-9.25855
-9.17286
-9.08738
-9.00216
-8.91724
-8.83266
-13.1627
-13.0868
-13.0108
-12.9346
-12.8583
-12.7817
-12.7049
-12.628
-12.5508
-12.4735
-12.3959
-12.318
-12.24
-12.1616
-12.083
-12.0042
-11.925
-11.8456
-11.7659
-11.6858
-11.6055
-11.5248
-11.4438
-11.3624
-11.2807
-11.1987
-11.1163
-11.0335
-10.9505
-10.867
-10.7833
-10.6992
-10.6148
-10.53
-10.445
-10.3597
-10.2741
-10.1883
-10.1022
-10.016
-9.9296
-9.84305
-9.7564
-9.66967
-9.5829
-9.49614
-9.40941
-9.32277
-9.23624
-9.14988
-9.06374
-8.97785
-8.89226
-8.80701
-13.1589
-13.0827
-13.0064
-12.9299
-12.8532
-12.7763
-12.6992
-12.6219
-12.5444
-12.4667
-12.3888
-12.3106
-12.2322
-12.1536
-12.0746
-11.9954
-11.9159
-11.8361
-11.7559
-11.6755
-11.5947
-11.5136
-11.4322
-11.3504
-11.2682
-11.1857
-11.1028
-11.0195
-10.9359
-10.8519
-10.7676
-10.6829
-10.5979
-10.5125
-10.4268
-10.3408
-10.2546
-10.168
-10.0812
-9.99425
-9.90707
-9.81973
-9.73227
-9.64472
-9.55712
-9.4695
-9.38191
-9.2944
-9.207
-9.11976
-9.03272
-8.94594
-8.85946
-8.77333
-13.1539
-13.0773
-13.0005
-12.9235
-12.8464
-12.7691
-12.6915
-12.6138
-12.5359
-12.4577
-12.3794
-12.3007
-12.2219
-12.1427
-12.0633
-11.9836
-11.9036
-11.8233
-11.7426
-11.6617
-11.5803
-11.4987
-11.4166
-11.3342
-11.2514
-11.1682
-11.0847
-11.0007
-10.9163
-10.8316
-10.7465
-10.661
-10.5751
-10.4888
-10.4022
-10.3153
-10.2281
-10.1405
-10.0527
-9.96468
-9.87641
-9.78796
-9.69937
-9.61067
-9.52189
-9.43308
-9.34428
-9.25554
-9.1669
-9.07841
-8.99012
-8.90209
-8.81435
-8.72696
-13.1491
-13.072
-12.9947
-12.9173
-12.8398
-12.762
-12.684
-12.6059
-12.5275
-12.4489
-12.3701
-12.2911
-12.2117
-12.1321
-12.0523
-11.9721
-11.8916
-11.8108
-11.7296
-11.6481
-11.5663
-11.484
-11.4014
-11.3184
-11.2349
-11.1511
-11.0669
-10.9822
-10.8971
-10.8116
-10.7257
-10.6393
-10.5526
-10.4655
-10.3779
-10.2901
-10.2018
-10.1133
-10.0244
-9.93529
-9.84591
-9.75633
-9.66657
-9.57667
-9.48668
-9.39664
-9.30659
-9.21659
-9.12667
-9.03689
-8.94731
-8.85798
-8.76894
-8.68025
-13.1443
-13.0668
-12.9891
-12.9113
-12.8333
-12.7551
-12.6767
-12.5981
-12.5194
-12.4403
-12.3611
-12.2816
-12.2018
-12.1218
-12.0415
-11.9608
-11.8799
-11.7986
-11.7169
-11.6349
-11.5525
-11.4697
-11.3865
-11.3029
-11.2188
-11.1344
-11.0494
-10.9641
-10.8782
-10.792
-10.7052
-10.6181
-10.5305
-10.4424
-10.354
-10.2651
-10.1759
-10.0863
-9.99635
-9.90611
-9.81559
-9.72484
-9.63388
-9.54277
-9.45153
-9.36021
-9.26888
-9.17756
-9.08632
-8.99522
-8.90429
-8.81361
-8.72323
-8.6332
-13.1397
-13.0617
-12.9836
-12.9054
-12.827
-12.7484
-12.6696
-12.5906
-12.5114
-12.432
-12.3523
-12.2724
-12.1922
-12.1117
-12.0309
-11.9499
-11.8684
-11.7867
-11.7045
-11.622
-11.5391
-11.4557
-11.372
-11.2878
-11.2031
-11.118
-11.0324
-10.9463
-10.8597
-10.7727
-10.6852
-10.5972
-10.5087
-10.4197
-10.3303
-10.2405
-10.1502
-10.0596
-9.96853
-9.87716
-9.78548
-9.69352
-9.60134
-9.50896
-9.41643
-9.32381
-9.23113
-9.13847
-9.04586
-8.95338
-8.86107
-8.76899
-8.67722
-8.58579
-13.1352
-13.0568
-12.9783
-12.8996
-12.8208
-12.7418
-12.6626
-12.5832
-12.5036
-12.4238
-12.3437
-12.2634
-12.1828
-12.1019
-12.0207
-11.9392
-11.8573
-11.7751
-11.6924
-11.6094
-11.526
-11.4421
-11.3578
-11.273
-11.1877
-11.102
-11.0157
-10.9289
-10.8417
-10.7538
-10.6655
-10.5767
-10.4873
-10.3974
-10.3071
-10.2162
-10.1249
-10.0332
-9.94101
-9.84848
-9.7556
-9.66241
-9.56895
-9.47527
-9.38142
-9.28744
-9.19339
-9.09932
-9.0053
-8.91139
-8.81764
-8.72412
-8.6309
-8.53803
-13.1308
-13.052
-12.9731
-12.894
-12.8148
-12.7354
-12.6558
-12.576
-12.496
-12.4158
-12.3353
-12.2546
-12.1736
-12.0923
-12.0107
-11.9288
-11.8465
-11.7638
-11.6807
-11.5972
-11.5133
-11.4289
-11.344
-11.2587
-11.1728
-11.0864
-10.9995
-10.912
-10.824
-10.7354
-10.6463
-10.5566
-10.4663
-10.3755
-10.2842
-10.1923
-10.1
-10.0071
-9.91381
-9.82009
-9.72598
-9.63152
-9.53676
-9.44174
-9.34651
-9.25113
-9.15566
-9.06014
-8.96466
-8.86926
-8.77402
-8.679
-8.58427
-8.48991
-13.1266
-13.0474
-12.968
-12.8885
-12.8089
-12.7291
-12.6491
-12.569
-12.4886
-12.408
-12.3272
-12.2461
-12.1647
-12.083
-12.001
-11.9187
-11.836
-11.7529
-11.6693
-11.5854
-11.501
-11.4161
-11.3307
-11.2448
-11.1583
-11.0713
-10.9838
-10.8956
-10.8069
-10.7175
-10.6276
-10.537
-10.4459
-10.3541
-10.2618
-10.1689
-10.0754
-9.98145
-9.88697
-9.79203
-9.69666
-9.60089
-9.50478
-9.40838
-9.31174
-9.21491
-9.11795
-9.02094
-8.92393
-8.82699
-8.7302
-8.63363
-8.53734
-8.44142
-13.1224
-13.0428
-12.963
-12.8832
-12.8032
-12.723
-12.6426
-12.5621
-12.4814
-12.4004
-12.3192
-12.2378
-12.156
-12.074
-11.9916
-11.9089
-11.8258
-11.7423
-11.6583
-11.5739
-11.4891
-11.4037
-11.3178
-11.2314
-11.1443
-11.0567
-10.9685
-10.8797
-10.7902
-10.7001
-10.6093
-10.5179
-10.4259
-10.3332
-10.2399
-10.1459
-10.0513
-9.95621
-9.86054
-9.76434
-9.66767
-9.57056
-9.47306
-9.37523
-9.27712
-9.17879
-9.0803
-8.98173
-8.88314
-8.78461
-8.68621
-8.58801
-8.49011
-8.39256
-13.1184
-13.0383
-12.9582
-12.8779
-12.7975
-12.717
-12.6363
-12.5554
-12.4743
-12.393
-12.3115
-12.2297
-12.1476
-12.0652
-11.9825
-11.8994
-11.816
-11.7321
-11.6477
-11.5629
-11.4776
-11.3918
-11.3054
-11.2184
-11.1308
-11.0426
-10.9538
-10.8643
-10.7741
-10.6832
-10.5917
-10.4994
-10.4065
-10.3128
-10.2184
-10.1234
-10.0278
-9.93144
-9.83454
-9.73706
-9.63905
-9.54055
-9.44163
-9.34232
-9.24269
-9.1428
-9.04273
-8.94254
-8.84231
-8.74211
-8.64203
-8.54215
-8.44256
-8.34333
-13.1144
-13.034
-12.9534
-12.8728
-12.7921
-12.7112
-12.6301
-12.5489
-12.4675
-12.3859
-12.304
-12.2219
-12.1395
-12.0568
-11.9737
-11.8903
-11.8065
-11.7222
-11.6375
-11.5523
-11.4666
-11.3803
-11.2934
-11.206
-11.1179
-11.0291
-10.9396
-10.8495
-10.7586
-10.667
-10.5746
-10.4815
-10.3876
-10.293
-10.1976
-10.1015
-10.0047
-9.90719
-9.80902
-9.71023
-9.61084
-9.51092
-9.41051
-9.30968
-9.20847
-9.10697
-9.00525
-8.90338
-8.80144
-8.69951
-8.59769
-8.49605
-8.3947
-8.29371
-13.1105
-13.0297
-12.9488
-12.8678
-12.7867
-12.7055
-12.6241
-12.5426