/*--------------------------------*- C++ -*----------------------------------*\
  =========                 |
  \\      /  F ield         | OpenFOAM: The Open Source CFD Toolbox
   \\    /   O peration     | Website:  https://openfoam.org
    \\  /    A nd           | Version:  7
     \\/     M anipulation  |
\*---------------------------------------------------------------------------*/
FoamFile
{
    version     2.0;
    format      ascii;
    class       volScalarField;
    location    "0/insulator";
    object      voltIextMag;
}
// * * * * * * * * * * * * * * * * * * * * * * * * * * * * * * * * * * * * * //

dimensions      [1 2 -3 0 0 -1 0];

internalField   nonuniform List<scalar> 
98782
(
-2499.24
-2439.58
-2323.4
-2234.93
-2186.49
-2162.24
-2150.39
-2144.64
-2141.86
-2140.52
-2139.8
-2139.25
-2138.69
-2138.14
-2137.58
-2137.03
-2136.47
-2135.91
-2135.36
-2134.8
-2134.25
-2504.49
-2472.56
-2375.8
-2274.54
-2212.2
-2179.76
-2163.7
-2155.86
-2152.07
-2150.23
-2149.25
-2148.49
-2147.73
-2146.97
-2146.21
-2145.45
-2144.69
-2143.92
-2143.16
-2142.4
-2141.64
-2509.62
-2511.33
-2457.21
-2349.42
-2265.17
-2217.88
-2193.81
-2181.95
-2176.17
-2173.36
-2171.87
-2170.71
-2169.55
-2168.39
-2167.22
-2166.06
-2164.89
-2163.72
-2162.55
-2161.38
-2160.21
-2513.22
-2544.02
-2548.16
-2458.71
-2352.22
-2284.34
-2248.23
-2230.11
-2221.22
-2216.9
-2214.59
-2212.79
-2210.99
-2209.19
-2207.38
-2205.57
-2203.75
-2201.93
-2200.11
-2198.29
-2196.46
-2515.42
-2567.68
-2631.29
-2591.64
-2475.74
-2385.08
-2333.47
-2306.9
-2293.71
-2287.26
-2283.8
-2281.12
-2278.42
-2275.71
-2272.99
-2270.26
-2267.53
-2264.78
-2262.03
-2259.26
-2256.49
-2516.69
-2583.53
-2697.4
-2728.36
-2628.71
-2519.69
-2451.22
-2414.63
-2396.18
-2387.09
-2382.21
-2378.4
-2374.57
-2370.72
-2366.85
-2362.96
-2359.05
-2355.12
-2351.16
-2347.19
-2343.2
-2517.4
-2593.77
-2745.47
-2850.52
-2794.7
-2679.32
-2595.94
-2549.1
-2525
-2513.02
-2506.55
-2501.5
-2496.4
-2491.26
-2486.08
-2480.86
-2475.6
-2470.3
-2464.96
-2459.58
-2454.16
-2517.8
-2600.34
-2778.69
-2948.86
-2954.3
-2848.76
-2755.8
-2700.14
-2670.74
-2655.96
-2647.95
-2641.66
-2635.29
-2628.86
-2622.35
-2615.78
-2609.13
-2602.41
-2595.63
-2588.77
-2581.84
-2518.02
-2604.57
-2801.14
-3022.79
-3093.14
-3011.69
-2916.25
-2854.46
-2820.82
-2803.69
-2794.34
-2786.97
-2779.5
-2771.91
-2764.21
-2756.4
-2748.47
-2740.44
-2732.3
-2724.05
-2715.68
-2518.15
-2607.33
-2816.21
-3076.18
-3205.29
-3155.88
-3064.44
-2999.63
-2963.15
-2944.3
-2933.95
-2925.77
-2917.42
-2908.92
-2900.26
-2891.44
-2882.47
-2873.34
-2864.05
-2854.6
-2845
-2518.23
-2609.16
-2826.37
-3113.95
-3291.44
-3275.42
-3192.19
-3126.99
-3089
-3069.09
-3058.09
-3049.35
-3040.41
-3031.26
-3021.91
-3012.35
-3002.59
-2992.63
-2982.46
-2972.08
-2961.5
-2518.27
-2610.39
-2833.27
-3140.43
-3355.53
-3369.85
-3296.53
-3232.62
-3194.13
-3173.67
-3162.3
-3153.23
-3143.92
-3134.37
-3124.56
-3114.51
-3104.21
-3093.66
-3082.86
-3071.8
-3060.5
-2518.3
-2611.23
-2838
-3158.95
-3402.29
-3441.93
-3378.37
-3316.52
-3278.13
-3257.47
-3245.93
-3236.69
-3227.18
-3217.38
-3207.3
-3196.94
-3186.29
-3175.35
-3164.12
-3152.6
-3140.79
-2518.32
-2611.81
-2841.25
-3171.92
-3436
-3495.69
-3440.68
-3381.06
-3343.04
-3322.38
-3310.77
-3301.47
-3291.85
-3281.93
-3271.69
-3261.14
-3250.28
-3239.09
-3227.58
-3215.75
-3203.6
-2518.33
-2612.21
-2843.52
-3181.01
-3460.13
-3535.13
-3487.14
-3429.54
-3391.98
-3371.4
-3359.8
-3350.47
-3340.82
-3330.83
-3320.51
-3309.85
-3298.85
-3287.51
-3275.82
-3263.79
-3251.4
-2518.34
-2612.48
-2845.09
-3187.4
-3477.34
-3563.76
-3521.25
-3465.35
-3428.23
-3407.76
-3396.18
-3386.86
-3377.19
-3367.18
-3356.82
-3346.1
-3335.02
-3323.58
-3311.77
-3299.6
-3287.06
-2518.34
-2612.68
-2846.2
-3191.9
-3489.59
-3584.39
-3546.04
-3491.48
-3454.74
-3434.36
-3422.82
-3413.51
-3403.85
-3393.83
-3383.44
-3372.69
-3361.56
-3350.06
-3338.18
-3325.92
-3313.27
-2518.34
-2612.82
-2846.98
-3195.07
-3498.28
-3599.17
-3563.91
-3510.38
-3473.94
-3453.66
-3442.14
-3432.85
-3423.2
-3413.17
-3402.78
-3392
-3380.85
-3369.31
-3357.38
-3345.06
-3332.34
-2518.35
-2612.91
-2847.53
-3197.31
-3504.46
-3609.73
-3576.74
-3523.98
-3487.77
-3467.55
-3456.06
-3446.79
-3437.14
-3427.12
-3416.72
-3405.93
-3394.76
-3383.19
-3371.23
-3358.87
-3346.1
-2518.35
-2612.98
-2847.91
-3198.89
-3508.83
-3617.26
-3585.91
-3533.71
-3497.67
-3477.51
-3466.04
-3456.78
-3447.14
-3437.12
-3426.72
-3415.92
-3404.74
-3393.16
-3381.17
-3368.78
-3355.98
-2518.35
-2613.07
-2848.42
-3200.96
-3514.57
-3627.14
-3597.98
-3546.54
-3510.74
-3490.65
-3479.21
-3469.96
-3460.34
-3450.32
-3439.92
-3429.12
-3417.92
-3406.32
-3394.3
-3381.88
-3369.04
-2518.35
-2613.19
-2849.1
-3203.77
-3522.41
-3640.77
-3614.71
-3564.36
-3528.9
-3508.93
-3497.54
-3488.32
-3478.71
-3468.71
-3458.31
-3447.5
-3436.29
-3424.66
-3412.62
-3400.15
-3387.25
-2518.36
-2613.31
-2849.78
-3206.57
-3530.27
-3654.52
-3631.67
-3582.47
-3547.39
-3527.55
-3516.21
-3507.02
-3497.44
-3487.45
-3477.06
-3466.25
-3455.03
-3443.38
-3431.3
-3418.79
-3405.84
-2518.36
-2613.43
-2850.46
-3209.36
-3538.14
-3668.39
-3648.85
-3600.87
-3566.2
-3546.5
-3535.22
-3526.07
-3516.52
-3506.55
-3496.17
-3485.37
-3474.14
-3462.47
-3450.37
-3437.82
-3424.82
-2518.36
-2613.55
-2851.13
-3212.14
-3546.02
-3682.37
-3666.28
-3619.58
-3585.34
-3565.79
-3554.58
-3545.48
-3535.96
-3526.02
-3515.66
-3504.86
-3493.63
-3481.95
-3469.83
-3457.24
-3444.2
-2518.36
-2613.66
-2851.8
-3214.91
-3553.91
-3696.47
-3683.94
-3638.59
-3604.82
-3585.44
-3574.31
-3565.25
-3555.78
-3545.87
-3535.53
-3524.75
-3513.52
-3501.83
-3489.69
-3477.08
-3464
-2518.37
-2613.78
-2852.46
-3217.66
-3561.8
-3710.68
-3701.84
-3657.91
-3624.64
-3605.45
-3594.4
-3585.4
-3575.97
-3566.1
-3555.79
-3545.03
-3533.8
-3522.12
-3509.96
-3497.32
-3484.21
-2518.37
-2613.89
-2853.12
-3220.4
-3569.7
-3725.01
-3719.98
-3677.54
-3644.81
-3625.83
-3614.87
-3605.93
-3596.55
-3586.73
-3576.45
-3565.71
-3554.5
-3542.82
-3530.65
-3518
-3504.85
-2518.37
-2614.01
-2853.77
-3223.13
-3577.6
-3739.45
-3738.36
-3697.49
-3665.34
-3646.57
-3635.71
-3626.84
-3617.53
-3607.76
-3597.52
-3586.81
-3575.62
-3563.95
-3551.78
-3539.11
-3525.93
-2518.37
-2614.12
-2854.42
-3225.84
-3585.51
-3754.01
-3756.99
-3717.77
-3686.23
-3667.7
-3656.95
-3648.16
-3638.91
-3629.19
-3619.01
-3608.33
-3597.17
-3585.51
-3573.35
-3560.67
-3547.47
-2518.37
-2614.24
-2855.07
-3228.54
-3593.42
-3768.67
-3775.86
-3738.38
-3707.49
-3689.21
-3678.58
-3669.88
-3660.7
-3651.05
-3640.92
-3630.29
-3619.16
-3607.53
-3595.37
-3582.69
-3569.48
-2518.38
-2614.35
-2855.71
-3231.23
-3601.33
-3783.44
-3794.99
-3759.31
-3729.12
-3711.12
-3700.62
-3692.01
-3682.92
-3673.34
-3663.27
-3652.69
-3641.6
-3629.99
-3617.85
-3605.18
-3591.96
-2518.38
-2614.46
-2856.34
-3233.9
-3609.24
-3798.33
-3814.36
-3780.59
-3751.13
-3733.43
-3723.07
-3714.56
-3705.56
-3696.06
-3686.06
-3675.55
-3664.51
-3652.93
-3640.82
-3628.15
-3614.93
-2518.38
-2614.57
-2856.98
-3236.56
-3617.14
-3813.32
-3833.99
-3802.21
-3773.53
-3756.15
-3745.95
-3737.54
-3728.64
-3719.23
-3709.31
-3698.86
-3687.88
-3676.35
-3664.26
-3651.62
-3638.4
-2518.38
-2614.68
-2857.6
-3239.2
-3625.04
-3828.41
-3853.87
-3824.18
-3796.33
-3779.29
-3769.25
-3760.96
-3752.17
-3742.86
-3733.03
-3722.65
-3711.73
-3700.26
-3688.21
-3675.59
-3662.38
-2518.38
-2614.79
-2858.22
-3241.82
-3632.94
-3843.61
-3874.01
-3846.5
-3819.53
-3802.86
-3792.99
-3784.83
-3776.16
-3766.96
-3757.22
-3746.93
-3736.08
-3724.67
-3712.67
-3700.08
-3686.89
-2518.38
-2614.9
-2858.84
-3244.43
-3640.83
-3858.91
-3894.4
-3869.17
-3843.13
-3826.85
-3817.17
-3809.15
-3800.61
-3791.52
-3781.89
-3771.7
-3760.94
-3749.59
-3737.65
-3725.1
-3711.94
-2518.38
-2615
-2859.45
-3247.02
-3648.71
-3874.31
-3915.05
-3892.21
-3867.15
-3851.29
-3841.81
-3833.94
-3825.53
-3816.58
-3807.06
-3796.98
-3786.31
-3775.04
-3763.16
-3750.67
-3737.55
-2518.39
-2615.11
-2860.06
-3249.6
-3656.58
-3889.81
-3935.96
-3915.61
-3891.59
-3876.17
-3866.92
-3859.2
-3850.94
-3842.13
-3832.74
-3822.77
-3812.2
-3801.02
-3789.23
-3776.79
-3763.72
-2518.39
-2615.22
-2860.66
-3252.16
-3664.43
-3905.39
-3957.13
-3939.39
-3916.46
-3901.51
-3892.49
-3884.95
-3876.85
-3868.18
-3858.93
-3849.09
-3838.64
-3827.56
-3815.85
-3803.49
-3790.47
-2518.39
-2615.32
-2861.26
-3254.7
-3672.28
-3921.08
-3978.56
-3963.53
-3941.76
-3927.31
-3918.54
-3911.18
-3903.26
-3894.75
-3885.65
-3875.95
-3865.62
-3854.66
-3843.04
-3830.77
-3817.81
-2518.39
-2615.43
-2861.85
-3257.23
-3680.1
-3936.85
-4000.25
-3988.06
-3967.51
-3953.59
-3945.08
-3937.91
-3930.18
-3921.85
-3912.91
-3903.36
-3893.17
-3882.33
-3870.83
-3858.65
-3845.77
-2518.39
-2615.53
-2862.44
-3259.74
-3687.91
-3952.7
-4022.2
-4012.97
-3993.7
-3980.34
-3972.11
-3965.16
-3957.62
-3949.48
-3940.72
-3931.33
-3921.29
-3910.59
-3899.21
-3887.13
-3874.35
-2518.39
-2615.63
-2863.02
-3262.22
-3695.7
-3968.64
-4044.41
-4038.26
-4020.34
-4007.58
-3999.65
-3992.92
-3985.59
-3977.65
-3969.08
-3959.87
-3950
-3939.45
-3928.2
-3916.25
-3903.57
-2518.39
-2615.73
-2863.6
-3264.69
-3703.47
-3984.66
-4066.88
-4063.94
-4047.44
-4035.31
-4027.7
-4021.21
-4014.11
-4006.39
-3998.02
-3989
-3979.31
-3968.92
-3957.83
-3946.01
-3933.45
-2518.39
-2615.83
-2864.17
-3267.15
-3711.22
-4000.75
-4089.61
-4090.02
-4075.01
-4063.55
-4056.27
-4050.03
-4043.18
-4035.68
-4027.54
-4018.73
-4009.23
-3999.02
-3988.09
-3976.42
-3963.99
-2518.39
-2615.93
-2864.74
-3269.58
-3718.94
-4016.92
-4112.59
-4116.5
-4103.05
-4092.29
-4085.38
-4079.4
-4072.8
-4065.56
-4057.65
-4049.06
-4039.77
-4029.76
-4019.01
-4007.5
-3995.22
-2518.39
-2616.03
-2865.3
-3271.99
-3726.64
-4033.15
-4135.84
-4143.37
-4131.57
-4121.55
-4115.01
-4109.33
-4103
-4096.02
-4088.36
-4080.01
-4070.95
-4061.15
-4050.6
-4039.27
-4027.15
-2518.39
-2616.13
-2865.85
-3274.38
-3734.31
-4049.45
-4159.34
-4170.64
-4160.57
-4151.33
-4145.2
-4139.81
-4133.78
-4127.08
-4119.69
-4111.6
-4102.78
-4093.21
-4082.87
-4071.74
-4059.8
-2518.39
-2616.23
-2866.41
-3276.76
-3741.94
-4065.81
-4183.09
-4198.33
-4190.06
-4181.65
-4175.94
-4170.87
-4165.15
-4158.75
-4151.65
-4143.83
-4135.27
-4125.95
-4115.84
-4104.93
-4093.19
-2518.39
-2616.32
-2866.95
-3279.11
-3749.54
-4082.23
-4207.09
-4226.41
-4220.04
-4212.5
-4207.24
-4202.51
-4197.11
-4191.03
-4184.24
-4176.71
-4168.43
-4159.38
-4149.52
-4138.84
-4127.32
-2518.39
-2616.42
-2867.49
-3281.44
-3757.11
-4098.69
-4231.35
-4254.91
-4250.53
-4243.9
-4239.11
-4234.74
-4229.69
-4223.94
-4217.48
-4210.27
-4202.29
-4193.52
-4183.93
-4173.51
-4162.22
-2518.39
-2616.51
-2868.03
-3283.75
-3764.64
-4115.2
-4255.85
-4283.82
-4281.51
-4275.85
-4271.55
-4267.56
-4262.88
-4257.49
-4251.38
-4244.5
-4236.84
-4228.38
-4219.08
-4208.93
-4197.9
-2518.39
-2616.61
-2868.56
-3286.04
-3772.14
-4131.76
-4280.6
-4313.14
-4313.01
-4308.36
-4304.59
-4300.99
-4296.7
-4291.69
-4285.94
-4279.42
-4272.11
-4263.97
-4254.99
-4245.14
-4234.39
-2518.39
-2616.7
-2869.09
-3288.3
-3779.59
-4148.34
-4305.58
-4342.87
-4345.02
-4341.43
-4338.21
-4335.03
-4331.16
-4326.55
-4321.19
-4315.05
-4308.1
-4300.32
-4291.67
-4282.14
-4271.69
-2518.39
-2616.79
-2869.61
-3290.55
-3786.99
-4164.96
-4330.8
-4373.02
-4377.54
-4375.07
-4372.43
-4369.7
-4366.25
-4362.07
-4357.13
-4351.39
-4344.83
-4337.42
-4329.13
-4319.94
-4309.82
-2518.39
-2616.88
-2870.12
-3292.77
-3794.36
-4181.6
-4356.24
-4403.58
-4410.59
-4409.28
-4407.26
-4404.99
-4402.01
-4398.27
-4393.77
-4388.45
-4382.31
-4375.3
-4367.4
-4358.57
-4348.8
-2518.39
-2616.98
-2870.63
-3294.97
-3801.67
-4198.26
-4381.92
-4434.56
-4444.16
-4444.08
-4442.7
-4440.92
-4438.42
-4435.16
-4431.12
-4426.26
-4420.55
-4413.97
-4406.48
-4398.05
-4388.65
-2518.39
-2617.06
-2871.13
-3297.14
-3808.93
-4214.92
-4407.81
-4465.94
-4478.25
-4479.46
-4478.75
-4477.49
-4475.5
-4472.74
-4469.19
-4464.81
-4459.57
-4453.44
-4446.39
-4438.38
-4429.38
-2518.39
-2617.15
-2871.63
-3299.29
-3816.14
-4231.6
-4433.92
-4497.74
-4512.88
-4515.44
-4515.43
-4514.72
-4513.26
-4511.03
-4508
-4504.12
-4499.38
-4493.73
-4487.14
-4479.58
-4471.02
-2518.39
-2617.24
-2872.12
-3301.42
-3823.3
-4248.27
-4460.23
-4529.95
-4548.03
-4552
-4552.74
-4552.6
-4551.71
-4550.03
-4547.54
-4544.2
-4539.98
-4534.84
-4528.75
-4521.67
-4513.57
-2518.39
-2617.33
-2872.61
-3303.52
-3830.4
-4264.93
-4486.74
-4562.56
-4583.72
-4589.17
-4590.68
-4591.14
-4590.84
-4589.75
-4587.84
-4585.06
-4581.4
-4576.8
-4571.23
-4564.67
-4557.06
-2518.39
-2617.41
-2873.09
-3305.6
-3837.44
-4281.58
-4513.44
-4595.58
-4619.94
-4626.93
-4629.27
-4630.35
-4630.68
-4630.2
-4628.9
-4626.72
-4623.64
-4619.61
-4614.61
-4608.58
-4601.5
-2518.39
-2617.5
-2873.57
-3307.66
-3844.41
-4298.2
-4540.32
-4628.99
-4656.69
-4665.3
-4668.49
-4670.24
-4671.22
-4671.39
-4670.72
-4669.18
-4666.71
-4663.29
-4658.88
-4653.43
-4646.91
-2518.38
-2617.58
-2874.04
-3309.68
-3851.33
-4314.78
-4567.37
-4662.8
-4693.98
-4704.28
-4708.37
-4710.8
-4712.47
-4713.32
-4713.33
-4712.44
-4710.63
-4707.86
-4704.07
-4699.23
-4693.31
-2518.38
-2617.67
-2874.51
-3311.69
-3858.17
-4331.33
-4594.59
-4697
-4731.8
-4743.86
-4748.89
-4752.05
-4754.43
-4756
-4756.71
-4756.53
-4755.41
-4753.31
-4750.19
-4746
-4740.7
-2518.38
-2617.75
-2874.96
-3313.66
-3864.95
-4347.83
-4621.95
-4731.58
-4770.15
-4784.05
-4790.06
-4793.98
-4797.12
-4799.44
-4800.89
-4801.45
-4801.05
-4799.67
-4797.24
-4793.74
-4789.11
-2518.38
-2617.83
-2875.42
-3315.62
-3871.66
-4364.27
-4649.45
-4766.54
-4809.02
-4824.86
-4831.88
-4836.6
-4840.53
-4843.64
-4845.88
-4847.2
-4847.57
-4846.94
-4845.26
-4842.48
-4838.56
-2518.38
-2617.91
-2875.87
-3317.54
-3878.29
-4380.64
-4677.08
-4801.86
-4848.42
-4866.26
-4874.36
-4879.91
-4884.67
-4888.6
-4891.66
-4893.81
-4894.98
-4895.14
-4894.24
-4892.23
-4889.06
-2518.38
-2617.99
-2876.31
-3319.44
-3884.84
-4396.93
-4704.82
-4837.54
-4888.34
-4908.28
-4917.5
-4923.91
-4929.54
-4934.34
-4938.26
-4941.26
-4943.28
-4944.28
-4944.2
-4943
-4940.63
-2518.37
-2618.07
-2876.75
-3321.31
-3891.32
-4413.14
-4732.66
-4873.56
-4928.77
-4950.89
-4961.29
-4968.61
-4975.15
-4980.86
-4985.69
-4989.58
-4992.49
-4994.37
-4995.16
-4994.81
-4993.28
-2518.37
-2618.15
-2877.18
-3323.15
-3897.71
-4429.26
-4760.58
-4909.92
-4969.71
-4994.11
-5005.73
-5014.01
-5021.5
-5028.16
-5033.93
-5038.77
-5042.61
-5045.42
-5047.12
-5047.68
-5047.02
-2518.37
-2618.23
-2877.6
-3324.97
-3904.02
-4445.26
-4788.57
-4946.61
-5011.15
-5037.93
-5050.82
-5060.09
-5068.58
-5076.24
-5083.01
-5088.83
-5093.66
-5097.44
-5100.1
-5101.61
-5101.89
-2518.37
-2618.3
-2878.02
-3326.75
-3910.25
-4461.16
-4816.6
-4983.6
-5053.08
-5082.34
-5096.56
-5106.87
-5116.41
-5125.11
-5132.91
-5139.78
-5145.64
-5150.44
-5154.12
-5156.62
-5157.88
-2518.37
-2618.38
-2878.43
-3328.51
-3916.38
-4476.92
-4844.66
-5020.88
-5095.48
-5127.33
-5142.94
-5154.34
-5164.96
-5174.76
-5183.66
-5191.61
-5198.55
-5204.42
-5209.17
-5212.72
-5215.02
-2518.36
-2618.45
-2878.84
-3330.24
-3922.42
-4492.55
-4872.73
-5058.43
-5138.36
-5172.89
-5189.96
-5202.5
-5214.26
-5225.2
-5235.24
-5244.33
-5252.41
-5259.41
-5265.28
-5269.93
-5273.32
-2518.36
-2618.53
-2879.24
-3331.95
-3928.37
-4508.03
-4900.78
-5096.24
-5181.69
-5219.03
-5237.62
-5251.34
-5264.29
-5276.42
-5287.67
-5297.95
-5307.23
-5315.41
-5322.45
-5328.27
-5332.8
-2133.69
-2133.12
-2132.55
-2131.99
-2131.42
-2130.85
-2130.29
-2129.72
-2129.15
-2128.58
-2128.02
-2127.45
-2126.88
-2126.31
-2125.75
-2125.18
-2124.61
-2124.04
-2123.48
-2122.91
-2122.34
-2121.77
-2121.21
-2120.64
-2120.07
-2119.5
-2118.93
-2118.37
-2117.8
-2117.23
-2116.66
-2116.1
-2115.53
-2114.96
-2114.39
-2113.82
-2113.26
-2112.69
-2112.12
-2111.55
-2110.98
-2110.42
-2109.85
-2109.28
-2108.71
-2108.15
-2107.58
-2107.01
-2106.44
-2105.88
-2105.31
-2104.74
-2104.17
-2103.61
-2140.87
-2140.09
-2139.31
-2138.53
-2137.75
-2136.97
-2136.19
-2135.41
-2134.63
-2133.85
-2133.07
-2132.29
-2131.51
-2130.73
-2129.95
-2129.17
-2128.38
-2127.6
-2126.82
-2126.04
-2125.25
-2124.47
-2123.69
-2122.9
-2122.12
-2121.34
-2120.55
-2119.77
-2118.98
-2118.2
-2117.41
-2116.63
-2115.85
-2115.06
-2114.28
-2113.49
-2112.71
-2111.92
-2111.13
-2110.35
-2109.56
-2108.78
-2107.99
-2107.21
-2106.42
-2105.64
-2104.85
-2104.07
-2103.28
-2102.49
-2101.71
-2100.92
-2100.14
-2099.35
-2159.03
-2157.83
-2156.63
-2155.44
-2154.24
-2153.04
-2151.84
-2150.63
-2149.43
-2148.23
-2147.02
-2145.81
-2144.61
-2143.4
-2142.19
-2140.98
-2139.77
-2138.56
-2137.35
-2136.13
-2134.92
-2133.7
-2132.49
-2131.27
-2130.06
-2128.84
-2127.62
-2126.4
-2125.18
-2123.96
-2122.74
-2121.52
-2120.3
-2119.08
-2117.85
-2116.63
-2115.41
-2114.18
-2112.96
-2111.73
-2110.51
-2109.28
-2108.06
-2106.83
-2105.6
-2104.38
-2103.15
-2101.92
-2100.69
-2099.47
-2098.24
-2097.01
-2095.78
-2094.56
-2194.61
-2192.74
-2190.86
-2188.99
-2187.11
-2185.22
-2183.34
-2181.45
-2179.56
-2177.66
-2175.76
-2173.86
-2171.95
-2170.05
-2168.14
-2166.22
-2164.31
-2162.39
-2160.47
-2158.54
-2156.62
-2154.69
-2152.76
-2150.83
-2148.89
-2146.95
-2145.01
-2143.07
-2141.13
-2139.18
-2137.24
-2135.29
-2133.33
-2131.38
-2129.43
-2127.47
-2125.51
-2123.56
-2121.6
-2119.63
-2117.67
-2115.71
-2113.74
-2111.78
-2109.81
-2107.84
-2105.87
-2103.9
-2101.93
-2099.96
-2097.99
-2096.01
-2094.04
-2092.07
-2253.68
-2250.84
-2247.99
-2245.13
-2242.27
-2239.39
-2236.5
-2233.61
-2230.71
-2227.8
-2224.88
-2221.96
-2219.03
-2216.09
-2213.14
-2210.19
-2207.23
-2204.26
-2201.28
-2198.3
-2195.32
-2192.32
-2189.32
-2186.31
-2183.3
-2180.28
-2177.26
-2174.23
-2171.2
-2168.16
-2165.11
-2162.06
-2159.01
-2155.95
-2152.89
-2149.82
-2146.75
-2143.67
-2140.6
-2137.51
-2134.43
-2131.34
-2128.24
-2125.15
-2122.05
-2118.95
-2115.85
-2112.74
-2109.63
-2106.52
-2103.41
-2100.3
-2097.18
-2094.07
-2339.15
-2335.04
-2330.91
-2326.77
-2322.6
-2318.42
-2314.21
-2309.99
-2305.75
-2301.49
-2297.22
-2292.92
-2288.61
-2284.29
-2279.94
-2275.58
-2271.21
-2266.81
-2262.41
-2257.99
-2253.55
-2249.1
-2244.63
-2240.16
-2235.66
-2231.16
-2226.64
-2222.11
-2217.57
-2213.02
-2208.45
-2203.88
-2199.29
-2194.69
-2190.09
-2185.47
-2180.85
-2176.21
-2171.57
-2166.92
-2162.26
-2157.6
-2152.93
-2148.25
-2143.56
-2138.87
-2134.18
-2129.48
-2124.77
-2120.06
-2115.35
-2110.63
-2105.91
-2101.19
-2448.65
-2443.05
-2437.42
-2431.74
-2426.02
-2420.27
-2414.48
-2408.65
-2402.79
-2396.89
-2390.96
-2384.99
-2378.99
-2372.95
-2366.88
-2360.78
-2354.65
-2348.48
-2342.29
-2336.06
-2329.81
-2323.52
-2317.21
-2310.88
-2304.51
-2298.12
-2291.71
-2285.27
-2278.81
-2272.32
-2265.81
-2259.29
-2252.74
-2246.17
-2239.58
-2232.97
-2226.35
-2219.71
-2213.05
-2206.38
-2199.7
-2193
-2186.28
-2179.56
-2172.83
-2166.08
-2159.33
-2152.56
-2145.79
-2139.01
-2132.23
-2125.44
-2118.65
-2111.85
-2574.79
-2567.59
-2560.33
-2553
-2545.6
-2538.14
-2530.6
-2523.01
-2515.35
-2507.62
-2499.83
-2491.98
-2484.07
-2476.1
-2468.07
-2459.98
-2451.84
-2443.64
-2435.39
-2427.08
-2418.72
-2410.31
-2401.86
-2393.35
-2384.8
-2376.2
-2367.56
-2358.87
-2350.14
-2341.38
-2332.57
-2323.73
-2314.85
-2305.94
-2296.99
-2288.02
-2279.01
-2269.98
-2260.92
-2251.84
-2242.73
-2233.6
-2224.45
-2215.28
-2206.1
-2196.9
-2187.68
-2178.45
-2169.22
-2159.97
-2150.72
-2141.46
-2132.19
-2122.93
-2707.14
-2698.4
-2689.55
-2680.6
-2671.53
-2662.36
-2653.08
-2643.7
-2634.22
-2624.63
-2614.94
-2605.15
-2595.26
-2585.28
-2575.2
-2565.03
-2554.76
-2544.41
-2533.97
-2523.44
-2512.83
-2502.14
-2491.37
-2480.52
-2469.6
-2458.6
-2447.54
-2436.4
-2425.2
-2413.94
-2402.61
-2391.23
-2379.79
-2368.29
-2356.75
-2345.16
-2333.52
-2321.85
-2310.13
-2298.37
-2286.58
-2274.76
-2262.91
-2251.04
-2239.14
-2227.22
-2215.28
-2203.33
-2191.37
-2179.4
-2167.42
-2155.44
-2143.46
-2131.48
-2835.16
-2825.06
-2814.8
-2804.39
-2793.82
-2783.09
-2772.21
-2761.18
-2749.99
-2738.66
-2727.17
-2715.54
-2703.77
-2691.85
-2679.8
-2667.61
-2655.28
-2642.82
-2630.23
-2617.52
-2604.68
-2591.72
-2578.64
-2565.45
-2552.15
-2538.74
-2525.23
-2511.61
-2497.9
-2484.1
-2470.21
-2456.24
-2442.18
-2428.05
-2413.85
-2399.57
-2385.24
-2370.84
-2356.39
-2341.89
-2327.34
-2312.75
-2298.12
-2283.46
-2268.78
-2254.06
-2239.33
-2224.59
-2209.83
-2195.07
-2180.3
-2165.54
-2150.79
-2136.05
-2950.61
-2939.42
-2928.01
-2916.39
-2904.56
-2892.53
-2880.28
-2867.84
-2855.19
-2842.33
-2829.28
-2816.03
-2802.59
-2788.95
-2775.13
-2761.12
-2746.93
-2732.55
-2718
-2703.28
-2688.39
-2673.33
-2658.12
-2642.75
-2627.23
-2611.56
-2595.75
-2579.8
-2563.73
-2547.52
-2531.2
-2514.77
-2498.22
-2481.57
-2464.83
-2447.99
-2431.07
-2414.08
-2397.01
-2379.87
-2362.68
-2345.43
-2328.14
-2310.81
-2293.45
-2276.06
-2258.65
-2241.23
-2223.81
-2206.38
-2188.96
-2171.55
-2154.17
-2136.81
-3048.84
-3036.81
-3024.52
-3011.97
-2999.16
-2986.09
-2972.76
-2959.18
-2945.35
-2931.26
-2916.92
-2902.34
-2887.51
-2872.43
-2857.12
-2841.58
-2825.8
-2809.79
-2793.56
-2777.11
-2760.45
-2743.58
-2726.5
-2709.23
-2691.76
-2674.11
-2656.28
-2638.27
-2620.1
-2601.77
-2583.28
-2564.65
-2545.89
-2526.99
-2507.97
-2488.84
-2469.6
-2450.27
-2430.84
-2411.34
-2391.77
-2372.13
-2352.44
-2332.71
-2312.94
-2293.14
-2273.33
-2253.51
-2233.68
-2213.87
-2194.07
-2174.3
-2154.56
-2134.86
-3128.58
-3115.95
-3103.01
-3089.77
-3076.23
-3062.38
-3048.24
-3033.79
-3019.04
-3003.99
-2988.65
-2973.01
-2957.09
-2940.87
-2924.37
-2907.59
-2890.54
-2873.21
-2855.61
-2837.76
-2819.64
-2801.28
-2782.67
-2763.82
-2744.74
-2725.44
-2705.91
-2686.19
-2666.25
-2646.13
-2625.83
-2605.35
-2584.7
-2563.9
-2542.96
-2521.88
-2500.67
-2479.35
-2457.92
-2436.4
-2414.8
-2393.13
-2371.39
-2349.61
-2327.79
-2305.94
-2284.08
-2262.21
-2240.35
-2218.5
-2196.68
-2174.91
-2153.18
-2131.51
-3191
-3177.95
-3164.55
-3150.82
-3136.75
-3122.34
-3107.58
-3092.49
-3077.06
-3061.3
-3045.19
-3028.76
-3012
-2994.91
-2977.5
-2959.76
-2941.72
-2923.36
-2904.7
-2885.73
-2866.48
-2846.93
-2827.11
-2807.01
-2786.65
-2766.03
-2745.16
-2724.05
-2702.71
-2681.14
-2659.37
-2637.4
-2615.24
-2592.9
-2570.39
-2547.73
-2524.92
-2501.98
-2478.93
-2455.77
-2432.52
-2409.18
-2385.78
-2362.33
-2338.84
-2315.32
-2291.78
-2268.25
-2244.73
-2221.24
-2197.78
-2174.37
-2151.03
-2127.77
-3238.54
-3225.2
-3211.49
-3197.41
-3182.96
-3168.14
-3152.95
-3137.39
-3121.47
-3105.17
-3088.51
-3071.49
-3054.1
-3036.36
-3018.26
-2999.81
-2981.02
-2961.88
-2942.4
-2922.6
-2902.47
-2882.03
-2861.27
-2840.21
-2818.86
-2797.22
-2775.31
-2753.13
-2730.69
-2708.01
-2685.1
-2661.96
-2638.62
-2615.07
-2591.34
-2567.44
-2543.38
-2519.18
-2494.85
-2470.4
-2445.85
-2421.21
-2396.5
-2371.73
-2346.93
-2322.09
-2297.25
-2272.41
-2247.58
-2222.79
-2198.05
-2173.37
-2148.77
-2124.25
-3274.03
-3260.48
-3246.55
-3232.23
-3217.52
-3202.41
-3186.91
-3171.01
-3154.73
-3138.05
-3120.98
-3103.53
-3085.69
-3067.47
-3048.86
-3029.89
-3010.54
-2990.82
-2970.74
-2950.31
-2929.53
-2908.41
-2886.96
-2865.18
-2843.08
-2820.68
-2797.98
-2774.99
-2751.72
-2728.2
-2704.42
-2680.4
-2656.15
-2631.69
-2607.03
-2582.19
-2557.17
-2532
-2506.69
-2481.26
-2455.71
-2430.08
-2404.37
-2378.6
-2352.79
-2326.95
-2301.1
-2275.26
-2249.44
-2223.66
-2197.94
-2172.28
-2146.72
-2121.25
-3300.12
-3286.44
-3272.35
-3257.86
-3242.96
-3227.65
-3211.93
-3195.8
-3179.26
-3162.31
-3144.95
-3127.18
-3109.01
-3090.44
-3071.47
-3052.1
-3032.35
-3012.21
-2991.69
-2970.8
-2949.54
-2927.93
-2905.96
-2883.64
-2861
-2838.03
-2814.74
-2791.15
-2767.28
-2743.12
-2718.69
-2694.01
-2669.1
-2643.95
-2618.6
-2593.05
-2567.32
-2541.43
-2515.39
-2489.22
-2462.93
-2436.55
-2410.09
-2383.57
-2357
-2330.41
-2303.81
-2277.22
-2250.66
-2224.14
-2197.68
-2171.3
-2145.01
-2118.84
-3319.1
-3305.33
-3291.14
-3276.53
-3261.5
-3246.04
-3230.16
-3213.86
-3197.14
-3179.99
-3162.42
-3144.43
-3126.03
-3107.2
-3087.97
-3068.33
-3048.28
-3027.84
-3007
-2985.77
-2964.16
-2942.18
-2919.84
-2897.14
-2874.09
-2850.7
-2826.99
-2802.97
-2778.64
-2754.02
-2729.12
-2703.96
-2678.55
-2652.9
-2627.04
-2600.97
-2574.71
-2548.29
-2521.71
-2495
-2468.16
-2441.23
-2414.22
-2387.14
-2360.02
-2332.88
-2305.72
-2278.58
-2251.47
-2224.4
-2197.4
-2170.49
-2143.67
-2116.97
-3332.81
-3318.97
-3304.71
-3290.01
-3274.89
-3259.33
-3243.34
-3226.92
-3210.07
-3192.78
-3175.06
-3156.92
-3138.34
-3119.34
-3099.91
-3080.07
-3059.81
-3039.15
-3018.08
-2996.61
-2974.75
-2952.51
-2929.9
-2906.91
-2883.58
-2859.89
-2835.87
-2811.52
-2786.87
-2761.91
-2736.67
-2711.16
-2685.39
-2659.38
-2633.14
-2606.7
-2580.06
-2553.24
-2526.27
-2499.16
-2471.93
-2444.6
-2417.18
-2389.7
-2362.18
-2334.63
-2307.07
-2279.52
-2252.01
-2224.55
-2197.15
-2169.85
-2142.65
-2115.57
-3342.65
-3328.77
-3314.45
-3299.7
-3284.51
-3268.88
-3252.82
-3236.31
-3219.36
-3201.98
-3184.15
-3165.89
-3147.2
-3128.06
-3108.5
-3088.52
-3068.11
-3047.29
-3026.05
-3004.41
-2982.37
-2959.94
-2937.13
-2913.95
-2890.4
-2866.5
-2842.26
-2817.68
-2792.79
-2767.59
-2742.1
-2716.34
-2690.31
-2664.03
-2637.53
-2610.81
-2583.9
-2556.8
-2529.55
-2502.15
-2474.63
-2447.01
-2419.3
-2391.53
-2363.71
-2335.87
-2308.02
-2280.18
-2252.38
-2224.63
-2196.95
-2169.36
-2141.88
-2114.53
-3355.66
-3341.71
-3327.33
-3312.5
-3297.23
-3281.51
-3265.34
-3248.72
-3231.66
-3214.14
-3196.18
-3177.76
-3158.91
-3139.61
-3119.87
-3099.7
-3079.09
-3058.06
-3036.61
-3014.74
-2992.46
-2969.78
-2946.71
-2923.26
-2899.44
-2875.25
-2850.71
-2825.83
-2800.63
-2775.11
-2749.29
-2723.19
-2696.82
-2670.2
-2643.34
-2616.26
-2588.97
-2561.51
-2533.88
-2506.1
-2478.2
-2450.19
-2422.1
-2393.94
-2365.73
-2337.49
-2309.26
-2281.03
-2252.85
-2224.71
-2196.66
-2168.69
-2140.84
-2113.13
-3373.8
-3359.78
-3345.31
-3330.38
-3314.99
-3299.14
-3282.84
-3266.07
-3248.84
-3231.14
-3212.98
-3194.37
-3175.29
-3155.76
-3135.78
-3115.34
-3094.46
-3073.14
-3051.38
-3029.19
-3006.59
-2983.56
-2960.13
-2936.31
-2912.1
-2887.51
-2862.56
-2837.25
-2811.61
-2785.64
-2759.36
-2732.79
-2705.93
-2678.82
-2651.46
-2623.87
-2596.07
-2568.08
-2539.92
-2511.61
-2483.16
-2454.61
-2425.97
-2397.26
-2368.5
-2339.72
-2310.94
-2282.17
-2253.44
-2224.77
-2196.18
-2167.68
-2139.31
-2111.08
-3392.33
-3378.23
-3363.67
-3348.64
-3333.14
-3317.17
-3300.73
-3283.81
-3266.41
-3248.54
-3230.19
-3211.36
-3192.07
-3172.3
-3152.06
-3131.36
-3110.2
-3088.59
-3066.52
-3044.01
-3021.06
-2997.69
-2973.89
-2949.68
-2925.08
-2900.08
-2874.7
-2848.96
-2822.87
-2796.44
-2769.68
-2742.62
-2715.27
-2687.65
-2659.77
-2631.66
-2603.32
-2574.79
-2546.08
-2517.22
-2488.22
-2459.11
-2429.9
-2400.63
-2371.3
-2341.95
-2312.6
-2283.27
-2253.98
-2224.75
-2195.61
-2166.57
-2137.67
-2108.9
-3411.25
-3397.08
-3382.43
-3367.31
-3351.7
-3335.6
-3319.02
-3301.95
-3284.39
-3266.34
-3247.79
-3228.76
-3209.24
-3189.24
-3168.75
-3147.78
-3126.34
-3104.42
-3082.04
-3059.2
-3035.91
-3012.17
-2988
-2963.4
-2938.38
-2912.97
-2887.16
-2860.97
-2834.41
-2807.51
-2780.27
-2752.71
-2724.84
-2696.7
-2668.29
-2639.63
-2610.75
-2581.66
-2552.39
-2522.95
-2493.37
-2463.68
-2433.89
-2404.03
-2374.12
-2344.19
-2314.25
-2284.34
-2254.47
-2224.66
-2194.95
-2165.35
-2135.89
-2106.58
-3430.57
-3416.34
-3401.61
-3386.39
-3370.67
-3354.45
-3337.73
-3320.51
-3302.78
-3284.55
-3265.82
-3246.58
-3226.83
-3206.59
-3185.84
-3164.6
-3142.87
-3120.65
-3097.95
-3074.77
-3051.13
-3027.02
-3002.47
-2977.47
-2952.04
-2926.19
-2899.93
-2873.29
-2846.26
-2818.86
-2791.12
-2763.05
-2734.66
-2705.97
-2677.01
-2647.8
-2618.35
-2588.68
-2558.83
-2528.8
-2498.63
-2468.33
-2437.94
-2407.48
-2376.96
-2346.42
-2315.88
-2285.36
-2254.9
-2224.5
-2194.2
-2164.02
-2133.98
-2104.11
-3450.31
-3436.01
-3421.2
-3405.89
-3390.06
-3373.73
-3356.87
-3339.5
-3321.61
-3303.2
-3284.27
-3264.82
-3244.85
-3224.36
-3203.36
-3181.84
-3159.82
-3137.29
-3114.26
-3090.75
-3066.74
-3042.26
-3017.31
-2991.91
-2966.05
-2939.76
-2913.05
-2885.93
-2858.41
-2830.51
-2802.26
-2773.65
-2744.72
-2715.48
-2685.96
-2656.17
-2626.13
-2595.87
-2565.41
-2534.78
-2503.99
-2473.07
-2442.06
-2410.97
-2379.82
-2348.66
-2317.49
-2286.35
-2255.26
-2224.25
-2193.35
-2162.57
-2131.94
-2101.48
-3470.48
-3456.11
-3441.23
-3425.82
-3409.9
-3393.44
-3376.45
-3358.94
-3340.88
-3322.3
-3303.17
-3283.51
-3263.31
-3242.58
-3221.31
-3199.52
-3177.2
-3154.36
-3131
-3107.13
-3082.76
-3057.9
-3032.55
-3006.73
-2980.44
-2953.69
-2926.51
-2898.91
-2870.89
-2842.48
-2813.69
-2784.54
-2755.05
-2725.24
-2695.13
-2664.74
-2634.1
-2603.23
-2572.14
-2540.88
-2509.46
-2477.9
-2446.24
-2414.5
-2382.71
-2350.89
-2319.08
-2287.29
-2255.56
-2223.92
-2192.38
-2160.98
-2129.74
-2098.68
-3491.08
-3476.65
-3461.69
-3446.2
-3430.18
-3413.61
-3396.49
-3378.83
-3360.61
-3341.85
-3322.53
-3302.65
-3282.23
-3261.25
-3239.72
-3217.64
-3195.02
-3171.86
-3148.17
-3123.95
-3099.21
-3073.95
-3048.19
-3021.94
-2995.21
-2968
-2940.34
-2912.24
-2883.7
-2854.76
-2825.43
-2795.72
-2765.65
-2735.25
-2704.54
-2673.54
-2642.27
-2610.76
-2579.03
-2547.12
-2515.03
-2482.81
-2450.49
-2418.08
-2385.61
-2353.12
-2320.64
-2288.19
-2255.8
-2223.49
-2191.3
-2159.26
-2127.39
-2095.71
-3512.12
-3497.64
-3482.62
-3467.05
-3450.92
-3434.24
-3416.99
-3399.19
-3380.81
-3361.87
-3342.35
-3322.27
-3301.61
-3280.38
-3258.59
-3236.23
-3213.31
-3189.82
-3165.79
-3141.21
-3116.09
-3090.43
-3064.25
-3037.57
-3010.38
-2982.7
-2954.54
-2925.93
-2896.87
-2867.38
-2837.48
-2807.2
-2776.54
-2745.53
-2714.2
-2682.56
-2650.65
-2618.48
-2586.09
-2553.5
-2520.73
-2487.82
-2454.8
-2421.7
-2388.54
-2355.35
-2322.17
-2289.03
-2255.95
-2222.97
-2190.1
-2157.39
-2124.87
-2092.54
-3533.62
-3519.1
-3504.01
-3488.36
-3472.14
-3455.35
-3437.98
-3420.03
-3401.5
-3382.37
-3362.67
-3342.37
-3321.48
-3300.01
-3277.94
-3255.29
-3232.06
-3208.26
-3183.87
-3158.93
-3133.42
-3107.36
-3080.75
-3053.62
-3025.96
-2997.8
-2969.14
-2940
-2910.4
-2880.35
-2849.87
-2818.99
-2787.72
-2756.09
-2724.11
-2691.82
-2659.24
-2626.39
-2593.31
-2560.02
-2526.55
-2492.93
-2459.19
-2425.37
-2391.49
-2357.58
-2323.68
-2289.82
-2256.03
-2222.33
-2188.77
-2155.38
-2122.17
-2089.18
-3555.6
-3541.03
-3525.88
-3510.16
-3493.85
-3476.95
-3459.46
-3441.37
-3422.68
-3403.38
-3383.48
-3362.97
-3341.86
-3320.13
-3297.79
-3274.86
-3251.32
-3227.18
-3202.44
-3177.12
-3151.22
-3124.75
-3097.71
-3070.12
-3041.99
-3013.32
-2984.14
-2954.47
-2924.31
-2893.68
-2862.61
-2831.11
-2799.21
-2766.93
-2734.3
-2701.33
-2668.06
-2634.51
-2600.71
-2566.7
-2532.5
-2498.14
-2463.66
-2429.09
-2394.45
-2359.8
-2325.15
-2290.55
-2256.01
-2221.59
-2187.31
-2153.19
-2119.28
-2085.61
-3578.05
-3563.44
-3548.25
-3532.45
-3516.06
-3499.06
-3481.45
-3463.22