/*--------------------------------*- C++ -*----------------------------------*\
  =========                 |
  \\      /  F ield         | OpenFOAM: The Open Source CFD Toolbox
   \\    /   O peration     | Website:  https://openfoam.org
    \\  /    A nd           | Version:  7
     \\/     M anipulation  |
\*---------------------------------------------------------------------------*/
FoamFile
{
    version     2.0;
    format      ascii;
    class       volVectorField;
    location    "3e-13/dielectric";
    object      EDext;
}
// * * * * * * * * * * * * * * * * * * * * * * * * * * * * * * * * * * * * * //

dimensions      [1 1 -3 0 0 -1 0];

internalField   nonuniform List<vector> 
4963
(
(18551.9 -2.21107e+06 -0)
(18129.1 -2.17441e+06 -0)
(17727.6 -2.13857e+06 -0)
(17330.8 -2.10352e+06 -0)
(16945.1 -2.06925e+06 -0)
(16569.9 -2.03575e+06 -0)
(16204.3 -2.00298e+06 -0)
(15848.1 -1.97094e+06 -0)
(15501 -1.9396e+06 -0)
(15162.9 -1.90894e+06 -0)
(14833.4 -1.87896e+06 -0)
(14512.4 -1.84962e+06 -0)
(14199.5 -1.82091e+06 -0)
(13894.6 -1.79283e+06 -0)
(13597.4 -1.76534e+06 -0)
(13307.7 -1.73845e+06 -0)
(13025.2 -1.71212e+06 -0)
(12749.9 -1.68635e+06 -0)
(12481.5 -1.66113e+06 -0)
(12219.7 -1.63643e+06 -0)
(11964.5 -1.61226e+06 -0)
(11715.6 -1.58858e+06 -0)
(11472.8 -1.5654e+06 -0)
(11236 -1.5427e+06 -0)
(11005.1 -1.52046e+06 -0)
(10779.7 -1.49868e+06 -0)
(10559.9 -1.47735e+06 -0)
(10345.4 -1.45645e+06 -0)
(10136.1 -1.43597e+06 -0)
(9931.86 -1.41591e+06 -0)
(9732.52 -1.39625e+06 -0)
(9537.94 -1.37698e+06 -0)
(9348.01 -1.3581e+06 -0)
(9162.59 -1.33959e+06 -0)
(8981.56 -1.32146e+06 -0)
(8804.79 -1.30367e+06 -0)
(8632.18 -1.28624e+06 -0)
(8463.6 -1.26915e+06 -0)
(8298.95 -1.25239e+06 -0)
(8138.12 -1.23596e+06 -0)
(7981 -1.21984e+06 -0)
(7827.49 -1.20404e+06 -0)
(7677.5 -1.18853e+06 -0)
(7530.93 -1.17333e+06 -0)
(7387.69 -1.15841e+06 -0)
(7247.68 -1.14378e+06 -0)
(7110.83 -1.12943e+06 -0)
(6977.04 -1.11534e+06 -0)
(6846.23 -1.10152e+06 -0)
(6718.32 -1.08796e+06 -0)
(6593.24 -1.07465e+06 -0)
(6470.91 -1.06159e+06 -0)
(6351.26 -1.04877e+06 -0)
(6234.21 -1.03619e+06 -0)
(6119.69 -1.02384e+06 -0)
(6007.64 -1.01171e+06 -0)
(5898 -999807 -0)
(5790.7 -988121 -0)
(5685.67 -976647 -0)
(5582.87 -965380 -0)
(5482.22 -954318 -0)
(5383.68 -943454 -0)
(5287.19 -932785 -0)
(5192.69 -922307 -0)
(5100.14 -912016 -0)
(5009.48 -901908 -0)
(4920.66 -891980 -0)
(4833.64 -882227 -0)
(4748.37 -872647 -0)
(4664.8 -863236 -0)
(4582.9 -853990 -0)
(4502.61 -844906 -0)
(4423.9 -835981 -0)
(4346.73 -827212 -0)
(4271.05 -818595 -0)
(4196.83 -810129 -0)
(4124.04 -801809 -0)
(4052.63 -793634 -0)
(3982.56 -785600 -0)
(3913.82 -777705 -0)
(3846.35 -769946 -0)
(3780.14 -762321 -0)
(3715.15 -754827 -0)
(3651.34 -747462 -0)
(3588.69 -740223 -0)
(3527.17 -733108 -0)
(3466.75 -726115 -0)
(3407.4 -719242 -0)
(3349.1 -712486 -0)
(3291.82 -705847 -0)
(3235.54 -699320 -0)
(3180.23 -692905 -0)
(3125.85 -686600 -0)
(3072.3 -680403 -0)
(3019.17 -674311 -0)
(2965.34 -668325 -0)
(2908.43 -662447 -0)
(2879.63 -656689 -0)
(55648.1 -2.21022e+06 -0)
(54373.8 -2.17359e+06 -0)
(53170.2 -2.13776e+06 -0)
(51983.1 -2.10274e+06 -0)
(50825.7 -2.06849e+06 -0)
(49699.8 -2.03501e+06 -0)
(48603.3 -2.00226e+06 -0)
(47535.1 -1.97024e+06 -0)
(46494.2 -1.93891e+06 -0)
(45480 -1.90828e+06 -0)
(44491.9 -1.87831e+06 -0)
(43529 -1.84899e+06 -0)
(42590.6 -1.8203e+06 -0)
(41676 -1.79223e+06 -0)
(40784.6 -1.76476e+06 -0)
(39915.7 -1.73788e+06 -0)
(39068.6 -1.71156e+06 -0)
(38242.8 -1.68581e+06 -0)
(37437.7 -1.6606e+06 -0)
(36652.7 -1.63592e+06 -0)
(35887.1 -1.61175e+06 -0)
(35140.6 -1.58809e+06 -0)
(34412.5 -1.56492e+06 -0)
(33702.3 -1.54223e+06 -0)
(33009.5 -1.52001e+06 -0)
(32333.7 -1.49824e+06 -0)
(31674.4 -1.47691e+06 -0)
(31031.1 -1.45602e+06 -0)
(30403.3 -1.43556e+06 -0)
(29790.7 -1.41551e+06 -0)
(29192.8 -1.39586e+06 -0)
(28609.2 -1.3766e+06 -0)
(28039.5 -1.35773e+06 -0)
(27483.4 -1.33923e+06 -0)
(26940.4 -1.3211e+06 -0)
(26410.2 -1.30332e+06 -0)
(25892.5 -1.2859e+06 -0)
(25386.9 -1.26882e+06 -0)
(24893 -1.25207e+06 -0)
(24410.6 -1.23564e+06 -0)
(23939.4 -1.21953e+06 -0)
(23479 -1.20373e+06 -0)
(23029.1 -1.18824e+06 -0)
(22589.5 -1.17304e+06 -0)
(22159.8 -1.15813e+06 -0)
(21739.9 -1.14351e+06 -0)
(21329.4 -1.12916e+06 -0)
(20928.1 -1.11508e+06 -0)
(20535.8 -1.10126e+06 -0)
(20152.1 -1.08771e+06 -0)
(19777 -1.0744e+06 -0)
(19410.1 -1.06135e+06 -0)
(19051.2 -1.04853e+06 -0)
(18700.1 -1.03596e+06 -0)
(18356.6 -1.02361e+06 -0)
(18020.5 -1.01149e+06 -0)
(17691.7 -999592 -0)
(17369.8 -987910 -0)
(17054.8 -976440 -0)
(16746.4 -965178 -0)
(16444.6 -954120 -0)
(16149 -943260 -0)
(15859.6 -932595 -0)
(15576.1 -922121 -0)
(15298.5 -911834 -0)
(15026.6 -901730 -0)
(14760.2 -891805 -0)
(14499.2 -882056 -0)
(14243.4 -872480 -0)
(13992.8 -863071 -0)
(13747.1 -853829 -0)
(13506.3 -844748 -0)
(13270.2 -835826 -0)
(13038.7 -827060 -0)
(12811.7 -818447 -0)
(12589.1 -809983 -0)
(12370.7 -801666 -0)
(12156.5 -793494 -0)
(11946.4 -785463 -0)
(11740.2 -777570 -0)
(11537.8 -769814 -0)
(11339.2 -762191 -0)
(11144.3 -754699 -0)
(10952.9 -747336 -0)
(10764.9 -740100 -0)
(10580.4 -732987 -0)
(10399.2 -725996 -0)
(10221.2 -719125 -0)
(10046.3 -712372 -0)
(9874.47 -705734 -0)
(9705.65 -699210 -0)
(9539.76 -692797 -0)
(9376.79 -686493 -0)
(9216.61 -680298 -0)
(9058.43 -674207 -0)
(8898.88 -668219 -0)
(8728.1 -662333 -0)
(8628.03 -656562 -0)
(92715.2 -2.20854e+06 -0)
(90585.1 -2.17194e+06 -0)
(88576.4 -2.13616e+06 -0)
(86603.7 -2.10118e+06 -0)
(84677.1 -2.06697e+06 -0)
(82800.8 -2.03353e+06 -0)
(80973.9 -2.00082e+06 -0)
(79194.4 -1.96883e+06 -0)
(77460.5 -1.93755e+06 -0)
(75771.2 -1.90694e+06 -0)
(74125 -1.87701e+06 -0)
(72521 -1.84772e+06 -0)
(70957.7 -1.81907e+06 -0)
(69434.2 -1.79103e+06 -0)
(67949.2 -1.76359e+06 -0)
(66501.8 -1.73673e+06 -0)
(65090.7 -1.71045e+06 -0)
(63715.1 -1.68473e+06 -0)
(62373.8 -1.65954e+06 -0)
(61066.1 -1.63489e+06 -0)
(59790.8 -1.61075e+06 -0)
(58547.1 -1.58711e+06 -0)
(57334.2 -1.56397e+06 -0)
(56151.1 -1.5413e+06 -0)
(54997.1 -1.5191e+06 -0)
(53871.2 -1.49735e+06 -0)
(52772.9 -1.47605e+06 -0)
(51701.1 -1.45518e+06 -0)
(50655.4 -1.43473e+06 -0)
(49634.8 -1.4147e+06 -0)
(48638.7 -1.39507e+06 -0)
(47666.5 -1.37583e+06 -0)
(46717.5 -1.35698e+06 -0)
(45791 -1.3385e+06 -0)
(44886.5 -1.32039e+06 -0)
(44003.2 -1.30263e+06 -0)
(43140.7 -1.28522e+06 -0)
(42298.4 -1.26815e+06 -0)
(41475.7 -1.25142e+06 -0)
(40672 -1.23501e+06 -0)
(39886.9 -1.21891e+06 -0)
(39119.9 -1.20313e+06 -0)
(38370.4 -1.18765e+06 -0)
(37638 -1.17246e+06 -0)
(36922.3 -1.15757e+06 -0)
(36222.7 -1.14296e+06 -0)
(35538.8 -1.12862e+06 -0)
(34870.3 -1.11455e+06 -0)
(34216.6 -1.10075e+06 -0)
(33577.5 -1.0872e+06 -0)
(32952.5 -1.07391e+06 -0)
(32341.2 -1.06087e+06 -0)
(31743.2 -1.04806e+06 -0)
(31158.3 -1.0355e+06 -0)
(30586.1 -1.02316e+06 -0)
(30026.2 -1.01105e+06 -0)
(29478.3 -999161 -0)
(28942.1 -987488 -0)
(28417.3 -976028 -0)
(27903.5 -964774 -0)
(27400.6 -953724 -0)
(26908.2 -942873 -0)
(26426 -932216 -0)
(25953.7 -921750 -0)
(25491.2 -911471 -0)
(25038.2 -901374 -0)
(24594.3 -891457 -0)
(24159.5 -881715 -0)
(23733.3 -872145 -0)
(23315.7 -862743 -0)
(22906.4 -853507 -0)
(22505.2 -844433 -0)
(22111.9 -835517 -0)
(21726.2 -826757 -0)
(21348 -818150 -0)
(20977.1 -809692 -0)
(20613.3 -801381 -0)
(20256.4 -793213 -0)
(19906.3 -785188 -0)
(19562.7 -777300 -0)
(19225.6 -769549 -0)
(18894.7 -761931 -0)
(18569.8 -754444 -0)
(18251 -747086 -0)
(17937.9 -739854 -0)
(17630.4 -732745 -0)
(17328.4 -725759 -0)
(17031.8 -718892 -0)
(16740.5 -712143 -0)
(16454.2 -705509 -0)
(16172.9 -698988 -0)
(15896.4 -692579 -0)
(15624.9 -686280 -0)
(15358.6 -680088 -0)
(15097.9 -674002 -0)
(14839.9 -668017 -0)
(14565.2 -662125 -0)
(14342.3 -656327 -0)
(129719 -2.20603e+06 -0)
(126753 -2.16947e+06 -0)
(123928 -2.13376e+06 -0)
(121170 -2.09884e+06 -0)
(118478 -2.0647e+06 -0)
(115854 -2.03131e+06 -0)
(113297 -1.99866e+06 -0)
(110808 -1.96673e+06 -0)
(108382 -1.9355e+06 -0)
(106019 -1.90495e+06 -0)
(103716 -1.87506e+06 -0)
(101472 -1.84583e+06 -0)
(99285.1 -1.81722e+06 -0)
(97153.8 -1.78923e+06 -0)
(95076.3 -1.76183e+06 -0)
(93051.4 -1.73502e+06 -0)
(91077.3 -1.70878e+06 -0)
(89152.9 -1.6831e+06 -0)
(87276.5 -1.65796e+06 -0)
(85446.9 -1.63334e+06 -0)
(83662.9 -1.60924e+06 -0)
(81923 -1.58564e+06 -0)
(80226.1 -1.56253e+06 -0)
(78570.9 -1.5399e+06 -0)
(76956.4 -1.51773e+06 -0)
(75381.3 -1.49602e+06 -0)
(73844.7 -1.47475e+06 -0)
(72345.3 -1.45391e+06 -0)
(70882.2 -1.4335e+06 -0)
(69454.4 -1.4135e+06 -0)
(68060.9 -1.39389e+06 -0)
(66700.7 -1.37469e+06 -0)
(65373 -1.35586e+06 -0)
(64076.8 -1.33741e+06 -0)
(62811.2 -1.31932e+06 -0)
(61575.5 -1.30159e+06 -0)
(60368.8 -1.2842e+06 -0)
(59190.3 -1.26716e+06 -0)
(58039.2 -1.25045e+06 -0)
(56914.8 -1.23406e+06 -0)
(55816.4 -1.21799e+06 -0)
(54743.3 -1.20222e+06 -0)
(53694.7 -1.18676e+06 -0)
(52670 -1.1716e+06 -0)
(51668.5 -1.15672e+06 -0)
(50689.7 -1.14213e+06 -0)
(49732.9 -1.12781e+06 -0)
(48797.5 -1.11376e+06 -0)
(47883 -1.09998e+06 -0)
(46988.7 -1.08645e+06 -0)
(46114.2 -1.07318e+06 -0)
(45258.9 -1.06015e+06 -0)
(44422.3 -1.04736e+06 -0)
(43603.9 -1.03481e+06 -0)
(42803.3 -1.02249e+06 -0)
(42019.9 -1.01039e+06 -0)
(41253.3 -998515 -0)
(40503 -986856 -0)
(39768.7 -975409 -0)
(39049.8 -964169 -0)
(38346.1 -953131 -0)
(37657.1 -942292 -0)
(36982.4 -931648 -0)
(36321.6 -921194 -0)
(35674.5 -910926 -0)
(35040.5 -900840 -0)
(34419.5 -890934 -0)
(33811 -881202 -0)
(33214.8 -871643 -0)
(32630.4 -862252 -0)
(32057.7 -853025 -0)
(31496.3 -843960 -0)
(30945.9 -835054 -0)
(30406.2 -826303 -0)
(29877 -817704 -0)
(29358 -809255 -0)
(28849 -800952 -0)
(28349.6 -792793 -0)
(27859.6 -784775 -0)
(27378.9 -776896 -0)
(26907.1 -769152 -0)
(26444.1 -761541 -0)
(25989.5 -754062 -0)
(25543.3 -746710 -0)
(25105.2 -739485 -0)
(24674.9 -732383 -0)
(24252.4 -725403 -0)
(23837.3 -718543 -0)
(23429.6 -711800 -0)
(23029 -705172 -0)
(22635.3 -698657 -0)
(22248.4 -692253 -0)
(21867.9 -685959 -0)
(21494.2 -679773 -0)
(21129.5 -673694 -0)
(20776 -667719 -0)
(20418 -661837 -0)
(20039.4 -656025 -0)
(166625 -2.20269e+06 -0)
(162862 -2.1662e+06 -0)
(159210 -2.13056e+06 -0)
(155664 -2.09573e+06 -0)
(152207 -2.06166e+06 -0)
(148838 -2.02836e+06 -0)
(145555 -1.99578e+06 -0)
(142357 -1.96393e+06 -0)
(139241 -1.93277e+06 -0)
(136206 -1.90229e+06 -0)
(133248 -1.87247e+06 -0)
(130366 -1.8433e+06 -0)
(127557 -1.81476e+06 -0)
(124819 -1.78683e+06 -0)
(122151 -1.7595e+06 -0)
(119550 -1.73275e+06 -0)
(117014 -1.70656e+06 -0)
(114542 -1.68094e+06 -0)
(112132 -1.65585e+06 -0)
(109782 -1.63128e+06 -0)
(107491 -1.60723e+06 -0)
(105256 -1.58369e+06 -0)
(103076 -1.56062e+06 -0)
(100950 -1.53804e+06 -0)
(98876.2 -1.51592e+06 -0)
(96853 -1.49425e+06 -0)
(94879.1 -1.47302e+06 -0)
(92953.2 -1.45223e+06 -0)
(91073.8 -1.43185e+06 -0)
(89239.7 -1.41189e+06 -0)
(87449.7 -1.39233e+06 -0)
(85702.4 -1.37316e+06 -0)
(83996.9 -1.35437e+06 -0)
(82331.8 -1.33595e+06 -0)
(80706.1 -1.3179e+06 -0)
(79118.8 -1.3002e+06 -0)
(77568.6 -1.28285e+06 -0)
(76054.8 -1.26583e+06 -0)
(74576.1 -1.24915e+06 -0)
(73131.7 -1.23279e+06 -0)
(71720.7 -1.21675e+06 -0)
(70342.1 -1.20102e+06 -0)
(68995 -1.18559e+06 -0)
(67678.6 -1.17045e+06 -0)
(66392.2 -1.1556e+06 -0)
(65134.7 -1.14103e+06 -0)
(63905.5 -1.12674e+06 -0)
(62703.9 -1.11271e+06 -0)
(61529 -1.09895e+06 -0)
(60380.2 -1.08545e+06 -0)
(59256.7 -1.07219e+06 -0)
(58157.9 -1.05919e+06 -0)
(57083.2 -1.04642e+06 -0)
(56031.8 -1.03389e+06 -0)
(55003.2 -1.02159e+06 -0)
(53996.7 -1.00951e+06 -0)
(53011.8 -997654 -0)
(52048 -986014 -0)
(51104.5 -974585 -0)
(50181 -963362 -0)
(49276.9 -952342 -0)
(48391.7 -941519 -0)
(47524.9 -930891 -0)
(46676 -920452 -0)
(45844.5 -910200 -0)
(45030 -900129 -0)
(44232.1 -890237 -0)
(43450.3 -880520 -0)
(42684.3 -870974 -0)
(41933.5 -861596 -0)
(41197.7 -852383 -0)
(40476.3 -843331 -0)
(39769.2 -834437 -0)
(39075.8 -825698 -0)
(38395.9 -817111 -0)
(37729.1 -808673 -0)
(37075 -800382 -0)
(36433.4 -792234 -0)
(35803.8 -784226 -0)
(35186.1 -776357 -0)
(34580 -768623 -0)
(33985 -761022 -0)
(33401 -753552 -0)
(32827.6 -746210 -0)
(32264.7 -738994 -0)
(31711.9 -731901 -0)
(31168.9 -724930 -0)
(30635.6 -718078 -0)
(30111.7 -711342 -0)
(29597 -704722 -0)
(29091.3 -698215 -0)
(28594.1 -691819 -0)
(28105.1 -685532 -0)
(27623.8 -679352 -0)
(27151.9 -673279 -0)
(26696.5 -667314 -0)
(26259.6 -661452 -0)
(25748.4 -655662 -0)
(203416 -2.19847e+06 -0)
(198878 -2.16211e+06 -0)
(194404 -2.12657e+06 -0)
(190067 -2.09184e+06 -0)
(185846 -2.05788e+06 -0)
(181734 -2.02467e+06 -0)
(177727 -1.99219e+06 -0)
(173824 -1.96043e+06 -0)
(170021 -1.92936e+06 -0)
(166315 -1.89897e+06 -0)
(162705 -1.86924e+06 -0)
(159186 -1.84015e+06 -0)
(155757 -1.81169e+06 -0)
(152415 -1.78383e+06 -0)
(149158 -1.75658e+06 -0)
(145983 -1.7299e+06 -0)
(142888 -1.70379e+06 -0)
(139870 -1.67823e+06 -0)
(136928 -1.65321e+06 -0)
(134059 -1.62872e+06 -0)
(131262 -1.60473e+06 -0)
(128533 -1.58124e+06 -0)
(125873 -1.55824e+06 -0)
(123277 -1.53572e+06 -0)
(120745 -1.51365e+06 -0)
(118275 -1.49204e+06 -0)
(115866 -1.47087e+06 -0)
(113514 -1.45012e+06 -0)
(111220 -1.4298e+06 -0)
(108981 -1.40989e+06 -0)
(106796 -1.39037e+06 -0)
(104663 -1.37125e+06 -0)
(102580 -1.3525e+06 -0)
(100548 -1.33413e+06 -0)
(98562.8 -1.31612e+06 -0)
(96624.8 -1.29846e+06 -0)
(94732.3 -1.28115e+06 -0)
(92884 -1.26418e+06 -0)
(91078.7 -1.24754e+06 -0)
(89315.2 -1.23122e+06 -0)
(87592.5 -1.21521e+06 -0)
(85909.3 -1.19951e+06 -0)
(84264.7 -1.18411e+06 -0)
(82657.5 -1.16901e+06 -0)
(81086.7 -1.15419e+06 -0)
(79551.4 -1.13966e+06 -0)
(78050.7 -1.12539e+06 -0)
(76583.5 -1.1114e+06 -0)
(75149 -1.09767e+06 -0)
(73746.3 -1.08419e+06 -0)
(72374.5 -1.07097e+06 -0)
(71032.9 -1.05799e+06 -0)
(69720.6 -1.04525e+06 -0)
(68436.9 -1.03274e+06 -0)
(67180.9 -1.02046e+06 -0)
(65952 -1.00841e+06 -0)
(64749.4 -996580 -0)
(63572.5 -984963 -0)
(62420.5 -973556 -0)
(61292.8 -962355 -0)
(60188.9 -951356 -0)
(59107.9 -940554 -0)
(58049.4 -929946 -0)
(57012.8 -919527 -0)
(55997.5 -909293 -0)
(55003 -899242 -0)
(54028.6 -889368 -0)
(53074 -879668 -0)
(52138.5 -870140 -0)
(51221.7 -860778 -0)
(50323.1 -851581 -0)
(49442.3 -842545 -0)
(48578.7 -833667 -0)
(47732 -824943 -0)
(46901.7 -816371 -0)
(46087.4 -807947 -0)
(45288.6 -799669 -0)
(44505.1 -791535 -0)
(43736.3 -783541 -0)
(42982 -775684 -0)
(42241.7 -767963 -0)
(41515.1 -760375 -0)
(40801.9 -752916 -0)
(40101.7 -745586 -0)
(39414.2 -738381 -0)
(38739 -731299 -0)
(38076 -724338 -0)
(37424.6 -717497 -0)
(36784.8 -710772 -0)
(36156.2 -704161 -0)
(35538.5 -697664 -0)
(34931.6 -691278 -0)
(34334.9 -685000 -0)
(33747.2 -678828 -0)
(33167.7 -672762 -0)
(32602.8 -666802 -0)
(32070 -660955 -0)
(31477.2 -655206 -0)
(240096 -2.19339e+06 -0)
(234756 -2.1572e+06 -0)
(229485 -2.1218e+06 -0)
(224360 -2.08718e+06 -0)
(219377 -2.05334e+06 -0)
(214524 -2.02025e+06 -0)
(209796 -1.98789e+06 -0)
(205190 -1.95624e+06 -0)
(200702 -1.92528e+06 -0)
(196329 -1.89499e+06 -0)
(192069 -1.86536e+06 -0)
(187917 -1.83637e+06 -0)
(183870 -1.808e+06 -0)
(179927 -1.78025e+06 -0)
(176083 -1.75308e+06 -0)
(172336 -1.72649e+06 -0)
(168683 -1.70047e+06 -0)
(165122 -1.67499e+06 -0)
(161650 -1.65005e+06 -0)
(158265 -1.62564e+06 -0)
(154963 -1.60173e+06 -0)
(151744 -1.57831e+06 -0)
(148603 -1.55539e+06 -0)
(145540 -1.53293e+06 -0)
(142553 -1.51094e+06 -0)
(139638 -1.48939e+06 -0)
(136794 -1.46828e+06 -0)
(134019 -1.4476e+06 -0)
(131311 -1.42734e+06 -0)
(128669 -1.40749e+06 -0)
(126089 -1.38803e+06 -0)
(123572 -1.36896e+06 -0)
(121114 -1.35027e+06 -0)
(118715 -1.33195e+06 -0)
(116373 -1.31399e+06 -0)
(114085 -1.29638e+06 -0)
(111852 -1.27912e+06 -0)
(109670 -1.2622e+06 -0)
(107539 -1.2456e+06 -0)
(105458 -1.22933e+06 -0)
(103425 -1.21336e+06 -0)
(101438 -1.19771e+06 -0)
(99496.8 -1.18235e+06 -0)
(97599.8 -1.16729e+06 -0)
(95745.8 -1.15251e+06 -0)
(93933.7 -1.13801e+06 -0)
(92162.2 -1.12379e+06 -0)
(90430.4 -1.10983e+06 -0)
(88737.2 -1.09613e+06 -0)
(87081.4 -1.08269e+06 -0)
(85462.2 -1.0695e+06 -0)
(83878.6 -1.05655e+06 -0)
(82329.5 -1.04384e+06 -0)
(80814.2 -1.03137e+06 -0)
(79331.6 -1.01912e+06 -0)
(77880.9 -1.0071e+06 -0)
(76461.3 -995292 -0)
(75072 -983703 -0)
(73712.1 -972323 -0)
(72381 -961148 -0)
(71077.7 -950174 -0)
(69801.7 -939397 -0)
(68552.2 -928813 -0)
(67328.4 -918418 -0)
(66129.8 -908207 -0)
(64955.7 -898178 -0)
(63805.5 -888326 -0)
(62678.5 -878647 -0)
(61574.1 -869139 -0)
(60491.8 -859798 -0)
(59430.9 -850621 -0)
(58391 -841603 -0)
(57371.5 -832743 -0)
(56371.8 -824038 -0)
(55391.6 -815483 -0)
(54430.2 -807077 -0)
(53487.2 -798816 -0)
(52562.1 -790698 -0)
(51654.4 -782719 -0)
(50763.8 -774878 -0)
(49889.8 -767172 -0)
(49032 -759598 -0)
(48189.9 -752154 -0)
(47363.1 -744837 -0)
(46551.4 -737646 -0)
(45754.3 -730577 -0)
(44971.4 -723630 -0)
(44202.3 -716800 -0)
(43446.8 -710088 -0)
(42704.5 -703489 -0)
(41975.1 -697003 -0)
(41258.5 -690628 -0)
(40554.3 -684362 -0)
(39861.8 -678202 -0)
(39178 -672145 -0)
(38503.2 -666190 -0)
(37855.5 -660346 -0)
(37205.7 -654624 -0)
(276661 -2.18748e+06 -0)
(270466 -2.15147e+06 -0)
(264422 -2.11623e+06 -0)
(258522 -2.08176e+06 -0)
(252779 -2.04806e+06 -0)
(247188 -2.01511e+06 -0)
(241742 -1.98288e+06 -0)
(236437 -1.95135e+06 -0)
(231268 -1.92052e+06 -0)
(226231 -1.89035e+06 -0)
(221324 -1.86084e+06 -0)
(216541 -1.83197e+06 -0)
(211881 -1.80372e+06 -0)
(207338 -1.77607e+06 -0)
(202911 -1.74901e+06 -0)
(198595 -1.72252e+06 -0)
(194387 -1.6966e+06 -0)
(190285 -1.67122e+06 -0)
(186286 -1.64638e+06 -0)
(182386 -1.62205e+06 -0)
(178583 -1.59823e+06 -0)
(174874 -1.57491e+06 -0)
(171257 -1.55206e+06 -0)
(167729 -1.52969e+06 -0)
(164287 -1.50777e+06 -0)
(160929 -1.4863e+06 -0)
(157653 -1.46527e+06 -0)
(154456 -1.44466e+06 -0)
(151337 -1.42447e+06 -0)
(148293 -1.40469e+06 -0)
(145321 -1.3853e+06 -0)
(142421 -1.36629e+06 -0)
(139590 -1.34767e+06 -0)
(136826 -1.32941e+06 -0)
(134127 -1.31151e+06 -0)
(131492 -1.29396e+06 -0)
(128919 -1.27676e+06 -0)
(126406 -1.25989e+06 -0)
(123951 -1.24335e+06 -0)
(121553 -1.22712e+06 -0)
(119210 -1.21121e+06 -0)
(116921 -1.19561e+06 -0)
(114685 -1.1803e+06 -0)
(112499 -1.16528e+06 -0)
(110363 -1.15055e+06 -0)
(108275 -1.1361e+06 -0)
(106234 -1.12191e+06 -0)
(104239 -1.108e+06 -0)
(102288 -1.09434e+06 -0)
(100380 -1.08094e+06 -0)
(98514.4 -1.06779e+06 -0)
(96689.6 -1.05488e+06 -0)
(94904.7 -1.0422e+06 -0)
(93158.6 -1.02976e+06 -0)
(91450.3 -1.01755e+06 -0)
(89778.7 -1.00556e+06 -0)
(88143 -993792 -0)
(86542.1 -982235 -0)
(84975.1 -970886 -0)
(83441.1 -959742 -0)
(81939.4 -948798 -0)
(80469 -938050 -0)
(79029.1 -927494 -0)
(77618.9 -917126 -0)
(76237.7 -906942 -0)
(74884.7 -896938 -0)
(73559.1 -887112 -0)
(72260.4 -877458 -0)
(70987.7 -867974 -0)
(69740.4 -858656 -0)
(68517.8 -849501 -0)
(67319.4 -840506 -0)
(66144.4 -831668 -0)
(64992.4 -822983 -0)
(63862.6 -814449 -0)
(62754.7 -806063 -0)
(61667.8 -797821 -0)
(60601.7 -789722 -0)
(59555.6 -781762 -0)
(58529.2 -773939 -0)
(57521.8 -766250 -0)
(56533.1 -758694 -0)
(55562.6 -751266 -0)
(54609.7 -743966 -0)
(53674.2 -736790 -0)
(52755.4 -729737 -0)
(51853 -722804 -0)
(50966.6 -715989 -0)
(50095.9 -709291 -0)
(49240.3 -702706 -0)
(48399.5 -696234 -0)
(47573.2 -689872 -0)
(46761.5 -683618 -0)
(45964.1 -677471 -0)
(45179 -671428 -0)
(44401.2 -665484 -0)
(43636.6 -659640 -0)
(42908.8 -653917 -0)
(313078 -2.18078e+06 -0)
(306006 -2.14493e+06 -0)
(299191 -2.10987e+06 -0)
(292527 -2.07557e+06 -0)
(286032 -2.04204e+06 -0)
(279708 -2.00924e+06 -0)
(273548 -1.97716e+06 -0)
(267547 -1.94578e+06 -0)
(261701 -1.91509e+06 -0)
(256004 -1.88507e+06 -0)
(250453 -1.85569e+06 -0)
(245044 -1.82695e+06 -0)
(239772 -1.79883e+06 -0)
(234634 -1.7713e+06 -0)
(229626 -1.74436e+06 -0)
(224745 -1.718e+06 -0)
(219986 -1.69219e+06 -0)
(215346 -1.66692e+06 -0)
(210822 -1.64218e+06 -0)
(206411 -1.61796e+06 -0)
(202109 -1.59424e+06 -0)
(197914 -1.57102e+06 -0)
(193822 -1.54827e+06 -0)
(189830 -1.52599e+06 -0)
(185937 -1.50416e+06 -0)
(182139 -1.48278e+06 -0)
(178433 -1.46184e+06 -0)
(174816 -1.44131e+06 -0)
(171288 -1.4212e+06 -0)
(167844 -1.4015e+06 -0)
(164482 -1.38218e+06 -0)
(161202 -1.36325e+06 -0)
(157999 -1.3447e+06 -0)
(154872 -1.32651e+06 -0)
(151819 -1.30868e+06 -0)
(148838 -1.2912e+06 -0)
(145926 -1.27406e+06 -0)
(143083 -1.25726e+06 -0)
(140305 -1.24077e+06 -0)
(137592 -1.22461e+06 -0)
(134942 -1.20876e+06 -0)
(132352 -1.19321e+06 -0)
(129822 -1.17796e+06 -0)
(127349 -1.16299e+06 -0)
(124932 -1.14831e+06 -0)
(122570 -1.13391e+06 -0)
(120260 -1.11978e+06 -0)
(118003 -1.10591e+06 -0)
(115795 -1.0923e+06 -0)
(113637 -1.07894e+06 -0)
(111526 -1.06583e+06 -0)
(109461 -1.05297e+06 -0)
(107441 -1.04034e+06 -0)
(105465 -1.02794e+06 -0)
(103532 -1.01576e+06 -0)
(101641 -1.00381e+06 -0)
(99789.8 -992081 -0)
(97978.2 -980560 -0)
(96205 -969247 -0)
(94469.1 -958138 -0)
(92769.7 -947228 -0)
(91105.7 -936513 -0)
(89476.3 -925989 -0)
(87880.4 -915652 -0)
(86317.3 -905499 -0)
(84786.1 -895525 -0)
(83286 -885727 -0)
(81816.2 -876101 -0)
(80375.9 -866644 -0)
(78964.2 -857353 -0)
(77580.6 -848225 -0)
(76224.3 -839255 -0)
(74894.5 -830441 -0)
(73590.7 -821780 -0)
(72312.1 -813270 -0)
(71058 -804906 -0)
(69828 -796687 -0)
(68621.3 -788609 -0)
(67437.3 -780670 -0)
(66275.5 -772868 -0)
(65135.4 -765199 -0)
(64016.3 -757662 -0)
(62917.8 -750253 -0)
(61839.2 -742971 -0)
(60780.2 -735814 -0)
(59740.3 -728778 -0)
(58718.8 -721862 -0)
(57715.5 -715064 -0)
(56729.9 -708382 -0)
(55761.4 -701813 -0)
(54809.7 -695356 -0)
(53874.2 -689009 -0)
(52954.8 -682770 -0)
(52051.9 -676637 -0)
(51165.4 -670610 -0)
(50290.8 -664682 -0)
(49422.8 -658848 -0)
(48581.8 -653115 -0)
(349296 -2.1733e+06 -0)
(341380 -2.13761e+06 -0)
(333779 -2.10273e+06 -0)
(326355 -2.06863e+06 -0)
(319116 -2.03527e+06 -0)
(312064 -2.00265e+06 -0)
(305194 -1.97074e+06 -0)
(298503 -1.93953e+06 -0)
(291983 -1.909e+06 -0)
(285631 -1.87914e+06 -0)
(279441 -1.84991e+06 -0)
(273409 -1.82132e+06 -0)
(267530 -1.79334e+06 -0)
(261801 -1.76595e+06 -0)
(256216 -1.73915e+06 -0)
(250772 -1.71291e+06 -0)
(245464 -1.68723e+06 -0)
(240290 -1.66209e+06 -0)
(235245 -1.63747e+06 -0)
(230325 -1.61337e+06 -0)
(225528 -1.58977e+06 -0)
(220849 -1.56665e+06 -0)
(216286 -1.54401e+06 -0)
(211834 -1.52183e+06 -0)
(207492 -1.50011e+06 -0)
(203256 -1.47883e+06 -0)
(199122 -1.45798e+06 -0)
(195089 -1.43755e+06 -0)
(191153 -1.41753e+06 -0)
(187312 -1.39791e+06 -0)
(183563 -1.37869e+06 -0)
(179904 -1.35984e+06 -0)
(176331 -1.34137e+06 -0)
(172844 -1.32326e+06 -0)
(169438 -1.30551e+06 -0)
(166113 -1.2881e+06 -0)
(162865 -1.27104e+06 -0)
(159694 -1.2543e+06 -0)
(156596 -1.23789e+06 -0)
(153569 -1.22179e+06 -0)
(150613 -1.206e+06 -0)
(147724 -1.19052e+06 -0)
(144901 -1.17533e+06 -0)
(142143 -1.16042e+06 -0)
(139447 -1.1458e+06 -0)
(136811 -1.13145e+06 -0)
(134235 -1.11738e+06 -0)
(131716 -1.10356e+06 -0)
(129254 -1.09001e+06 -0)
(126846 -1.0767e+06 -0)
(124490 -1.06364e+06 -0)
(122187 -1.05082e+06 -0)
(119934 -1.03824e+06 -0)
(117729 -1.02589e+06 -0)
(115573 -1.01376e+06 -0)
(113462 -1.00185e+06 -0)
(111397 -990160 -0)
(109376 -978680 -0)
(107397 -967407 -0)
(105461 -956337 -0)
(103565 -945465 -0)
(101708 -934787 -0)
(99889.8 -924299 -0)
(98109.2 -913997 -0)
(96365.1 -903878 -0)
(94656.6 -893937 -0)
(92982.7 -884171 -0)
(91342.6 -874577 -0)
(89735.4 -865152 -0)
(88160.2 -855890 -0)
(86616.2 -846791 -0)
(85102.7 -837850 -0)
(83618.8 -829064 -0)
(82163.8 -820430 -0)
(80737 -811945 -0)
(79337.6 -803607 -0)
(77964.9 -795413 -0)
(76618.2 -787359 -0)
(75296.9 -779444 -0)
(74000.4 -771665 -0)
(72728 -764019 -0)
(71479 -756503 -0)
(70253 -749116 -0)
(69049.3 -741855 -0)
(67867.4 -734717 -0)
(66706.7 -727701 -0)
(65566.7 -720805 -0)
(64446.9 -714026 -0)
(63346.8 -707362 -0)
(62265.9 -700811 -0)
(61203.7 -694371 -0)
(60159.7 -688041 -0)
(59133.3 -681818 -0)
(58124.5 -675701 -0)
(57134.4 -669689 -0)
(56162.7 -663779 -0)
(55203.3 -657966 -0)
(54238.9 -652239 -0)
(385275 -2.165e+06 -0)
(376573 -2.12951e+06 -0)
(368174 -2.09483e+06 -0)
(359989 -2.06093e+06 -0)
(352010 -2.02778e+06 -0)
(344237 -1.99535e+06 -0)
(336664 -1.96363e+06 -0)
(329286 -1.93261e+06 -0)
(322098 -1.90225e+06 -0)
(315095 -1.87256e+06 -0)
(308271 -1.84351e+06 -0)
(301620 -1.81507e+06 -0)
(295139 -1.78725e+06 -0)
(288822 -1.76002e+06 -0)
(282664 -1.73337e+06 -0)
(276662 -1.70728e+06 -0)
(270810 -1.68174e+06 -0)
(265105 -1.65674e+06 -0)
(259542 -1.63225e+06 -0)
(254118 -1.60828e+06 -0)
(248828 -1.5848e+06 -0)
(243669 -1.56181e+06 -0)
(238637 -1.53929e+06 -0)
(233729 -1.51723e+06 -0)
(228941 -1.49562e+06 -0)
(224270 -1.47445e+06 -0)
(219712 -1.45371e+06 -0)
(215264 -1.43338e+06 -0)
(210924 -1.41346e+06 -0)
(206689 -1.39394e+06 -0)
(202554 -1.37481e+06 -0)
(198519 -1.35606e+06 -0)
(194579 -1.33768e+06 -0)
(190733 -1.31966e+06 -0)
(186978 -1.30199e+06 -0)
(183310 -1.28467e+06 -0)
(179729 -1.26768e+06 -0)
(176231 -1.25102e+06 -0)
(172814 -1.23469e+06 -0)
(169477 -1.21866e+06 -0)
(166216 -1.20295e+06 -0)
(163030 -1.18753e+06 -0)
(159917 -1.17241e+06 -0)
(156874 -1.15757e+06 -0)
(153900 -1.14302e+06 -0)
(150994 -1.12873e+06 -0)
(148152 -1.11472e+06 -0)
(145374 -1.10096e+06 -0)
(142658 -1.08746e+06 -0)
(140001 -1.07421e+06 -0)
(137404 -1.06121e+06 -0)
(134863 -1.04844e+06 -0)
(132377 -1.03591e+06 -0)
(129946 -1.02361e+06 -0)
(127567 -1.01153e+06 -0)
(125239 -999674 -0)
(122961 -988030 -0)
(120731 -976596 -0)
(118548 -965367 -0)
(116412 -954340 -0)
(114320 -943510 -0)
(112272 -932873 -0)
(110266 -922425 -0)
(108301 -912162 -0)
(106377 -902080 -0)
(104492 -892177 -0)
(102646 -882447 -0)
(100836 -872888 -0)
(99062.9 -863496 -0)
(97325 -854268 -0)
(95621.5 -845201 -0)
(93951.6 -836291 -0)
(92314.3 -827536 -0)
(90708.9 -818932 -0)
(89134.6 -810477 -0)
(87590.4 -802167 -0)
(86075.8 -794000 -0)
(84589.9 -785974 -0)
(83131.9 -778085 -0)
(81701.3 -770331 -0)
(80297.2 -762709 -0)
(78919 -755218 -0)
(77566.1 -747855 -0)
(76237.8 -740617 -0)
(74933.5 -733502 -0)
(73652.7 -726508 -0)
(72394.6 -719632 -0)
(71158.8 -712874 -0)
(69944.7 -706230 -0)
(68751.8 -699699 -0)
(67579.6 -693279 -0)
(66427.6 -686967 -0)
(65295 -680763 -0)
(64181.1 -674663 -0)
(63086.6 -668667 -0)
(62013.6 -662775 -0)
(60962.7 -656983 -0)
(59890.6 -651280 -0)
(421003 -2.15586e+06 -0)
(411549 -2.12062e+06 -0)
(402357 -2.08617e+06 -0)
(393412 -2.05249e+06 -0)
(384698 -2.01955e+06 -0)
(376208 -1.98734e+06 -0)
(367937 -1.95583e+06 -0)
(359879 -1.92501e+06 -0)
(352029 -1.89485e+06 -0)
(344380 -1.86535e+06 -0)
(336926 -1.83648e+06 -0)
(329662 -1.80823e+06 -0)
(322583 -1.78058e+06 -0)
(315683 -1.75352e+06 -0)
(308957 -1.72703e+06 -0)
(302401 -1.7011e+06 -0)
(296009 -1.67572e+06 -0)
(289778 -1.65086e+06 -0)
(283701 -1.62653e+06 -0)
(277776 -1.6027e+06 -0)
(271998 -1.57936e+06 -0)
(266362 -1.5565e+06 -0)
(260866 -1.53411e+06 -0)
(255504 -1.51218e+06 -0)
(250273 -1.49069e+06 -0)
(245170 -1.46964e+06 -0)
(240191 -1.44902e+06 -0)
(235332 -1.4288e+06 -0)
(230591 -1.409e+06 -0)
(225964 -1.38958e+06 -0)
(221447 -1.37056e+06 -0)
(217038 -1.35191e+06 -0)
(212734 -1.33362e+06 -0)
(208532 -1.3157e+06 -0)
(204429 -1.29813e+06 -0)
(200422 -1.28089e+06 -0)
(196509 -1.264e+06 -0)
(192687 -1.24743e+06 -0)
(188954 -1.23117e+06 -0)
(185307 -1.21523e+06 -0)
(181744 -1.1996e+06 -0)
(178263 -1.18426e+06 -0)
(174861 -1.16921e+06 -0)
(171536 -1.15445e+06 -0)
(168287 -1.13996e+06 -0)
(165111 -1.12575e+06 -0)
(162006 -1.1118e+06 -0)
(158970 -1.09811e+06 -0)
(156002 -1.08467e+06 -0)
(153099 -1.07149e+06 -0)
(150260 -1.05854e+06 -0)
(147483 -1.04583e+06 -0)
(144767 -1.03336e+06 -0)
(142109 -1.02111e+06 -0)
(139509 -1.00909e+06 -0)
(136965 -997285 -0)
(134475 -985692 -0)
(132039 -974308 -0)
(129653 -963128 -0)
(127318 -952148 -0)
(125032 -941364 -0)
(122793 -930772 -0)
(120601 -920368 -0)
(118454 -910148 -0)
(116350 -900108 -0)
(114290 -890244 -0)
(112271 -880554 -0)
(110293 -871034 -0)
(108355 -861679 -0)
(106455 -852488 -0)
(104593 -843456 -0)
(102768 -834580 -0)
(100978 -825859 -0)
(99223.1 -817288 -0)
(97502 -808864 -0)
(95814 -800586 -0)
(94158.1 -792449 -0)
(92533.7 -784452 -0)
(90939.8 -776592 -0)
(89375.7 -768866 -0)
(87840.6 -761272 -0)
(86333.8 -753808 -0)
(84854.7 -746470 -0)
(83402.4 -739257 -0)
(81976.4 -732167 -0)
(80575.9 -725197 -0)
(79200.4 -718345 -0)
(77849.1 -711610 -0)
(76521.6 -704988 -0)
(75217.2 -698479 -0)
(73935.4 -692080 -0)
(72675.8 -685789 -0)
(71437.6 -679605 -0)
(70220.1 -673525 -0)
(69022.6 -667548 -0)
(67846.7 -661672 -0)
(66697.8 -655897 -0)
(65530.8 -650218 -0)
(456482 -2.1459e+06 -0)
(446270 -2.11094e+06 -0)
(436302 -2.07674e+06 -0)
(426604 -2.04331e+06 -0)
(417160 -2.01061e+06 -0)
(407960 -1.97863e+06 -0)
(398997 -1.94734e+06 -0)
(390265 -1.91674e+06 -0)
(381758 -1.8868e+06 -0)
(373468 -1.8575e+06 -0)
(365391 -1.82883e+06 -0)
(357519 -1.80077e+06 -0)
(349847 -1.77332e+06 -0)
(342369 -1.74644e+06 -0)
(335081 -1.72013e+06 -0)
(327975 -1.69438e+06 -0)
(321048 -1.66916e+06 -0)
(314294 -1.64447e+06 -0)
(307709 -1.6203e+06 -0)
(301287 -1.59662e+06 -0)
(295024 -1.57343e+06 -0)
(288916 -1.55072e+06 -0)
(282959 -1.52848e+06 -0)
(277147 -1.50668e+06 -0)
(271478 -1.48533e+06 -0)
(265947 -1.46441e+06 -0)
(260550 -1.44391e+06 -0)
(255283 -1.42383e+06 -0)
(250144 -1.40414e+06 -0)
(245128 -1.38484e+06 -0)
(240232 -1.36593e+06 -0)
(235452 -1.34739e+06 -0)
(230787 -1.32922e+06 -0)
(226231 -1.3114e+06 -0)
(221783 -1.29392e+06 -0)
(217440 -1.27679e+06 -0)
(213198 -1.25999e+06 -0)
(209055 -1.24351e+06 -0)
(205007 -1.22735e+06 -0)
(201054 -1.2115e+06 -0)
(197191 -1.19595e+06 -0)
(193417 -1.18069e+06 -0)
(189728 -1.16573e+06 -0)
(186124 -1.15104e+06 -0)
(182601 -1.13663e+06 -0)
(179157 -1.1225e+06 -0)
(175790 -1.10862e+06 -0)
(172498 -1.095e+06 -0)
(169280 -1.08164e+06 -0)
(166132 -1.06852e+06 -0)
(163054 -1.05564e+06 -0)
(160043 -1.043e+06 -0)
(157098 -1.03058e+06 -0)
(154216 -1.0184e+06 -0)
(151397 -1.00643e+06 -0)
(148638 -994684 -0)
(145937 -983147 -0)
(143295 -971818 -0)
(140708 -960691 -0)
(138175 -949762 -0)
(135696 -939029 -0)
(133268 -928486 -0)
(130890 -918129 -0)
(128562 -907955 -0)
(126281 -897960 -0)
(124046 -888141 -0)
(121857 -878494 -0)
(119711 -869015 -0)
(117609 -859701 -0)
(115548 -850549 -0)
(113529 -841556 -0)
(111548 -832718 -0)
(109607 -824033 -0)
(107703 -815498 -0)
(105837 -807109 -0)
(104005 -798864 -0)
(102209 -790761 -0)
(100447 -782796 -0)
(98717.9 -774967 -0)
(97021.1 -767272 -0)
(95355.8 -759708 -0)
(93721.2 -752272 -0)