/*--------------------------------*- C++ -*----------------------------------*\
  =========                 |
  \\      /  F ield         | OpenFOAM: The Open Source CFD Toolbox
   \\    /   O peration     | Website:  https://openfoam.org
    \\  /    A nd           | Version:  7
     \\/     M anipulation  |
\*---------------------------------------------------------------------------*/
FoamFile
{
    version     2.0;
    format      ascii;
    class       volScalarField;
    location    "1.1e-12";
    object      ne;
}
// * * * * * * * * * * * * * * * * * * * * * * * * * * * * * * * * * * * * * //

dimensions      [0 -3 0 0 0 0 0];

internalField   nonuniform List<scalar> 
14934
(
1.05243e+13
1.05127e+13
1.05019e+13
1.04914e+13
1.04813e+13
1.04716e+13
1.04622e+13
1.04531e+13
1.04443e+13
1.04358e+13
1.04276e+13
1.04196e+13
1.04119e+13
1.04044e+13
1.03971e+13
1.039e+13
1.03831e+13
1.03764e+13
1.03699e+13
1.03636e+13
1.03574e+13
1.03514e+13
1.03455e+13
1.03398e+13
1.03342e+13
1.03288e+13
1.03235e+13
1.03183e+13
1.03133e+13
1.03083e+13
1.03035e+13
1.02988e+13
1.02942e+13
1.02897e+13
1.02853e+13
1.0281e+13
1.02768e+13
1.02727e+13
1.02686e+13
1.02647e+13
1.02608e+13
1.0257e+13
1.02533e+13
1.02497e+13
1.02461e+13
1.02426e+13
1.02392e+13
1.02358e+13
1.02325e+13
1.02293e+13
1.02261e+13
1.0223e+13
1.022e+13
1.0217e+13
1.02141e+13
1.02112e+13
1.02083e+13
1.02056e+13
1.02028e+13
1.02002e+13
1.01975e+13
1.01949e+13
1.01924e+13
1.01899e+13
1.01874e+13
1.0185e+13
1.01827e+13
1.01803e+13
1.0178e+13
1.01758e+13
1.01736e+13
1.01714e+13
1.01693e+13
1.01672e+13
1.01651e+13
1.0163e+13
1.0161e+13
1.01591e+13
1.01571e+13
1.01552e+13
1.01533e+13
1.01515e+13
1.01497e+13
1.01479e+13
1.01461e+13
1.01444e+13
1.01427e+13
1.0141e+13
1.01393e+13
1.01375e+13
1.01356e+13
1.01334e+13
1.0131e+13
1.01283e+13
1.01256e+13
1.01233e+13
1.01218e+13
1.05228e+13
1.05115e+13
1.05008e+13
1.04905e+13
1.04805e+13
1.04709e+13
1.04615e+13
1.04525e+13
1.04438e+13
1.04353e+13
1.04271e+13
1.04192e+13
1.04114e+13
1.0404e+13
1.03967e+13
1.03896e+13
1.03827e+13
1.0376e+13
1.03695e+13
1.03632e+13
1.0357e+13
1.0351e+13
1.03451e+13
1.03394e+13
1.03339e+13
1.03284e+13
1.03231e+13
1.0318e+13
1.03129e+13
1.0308e+13
1.03032e+13
1.02984e+13
1.02938e+13
1.02893e+13
1.02849e+13
1.02806e+13
1.02764e+13
1.02723e+13
1.02682e+13
1.02643e+13
1.02604e+13
1.02566e+13
1.02529e+13
1.02493e+13
1.02457e+13
1.02422e+13
1.02388e+13
1.02354e+13
1.02321e+13
1.02289e+13
1.02257e+13
1.02226e+13
1.02196e+13
1.02166e+13
1.02136e+13
1.02107e+13
1.02079e+13
1.02051e+13
1.02024e+13
1.01997e+13
1.01971e+13
1.01945e+13
1.01919e+13
1.01894e+13
1.0187e+13
1.01845e+13
1.01822e+13
1.01798e+13
1.01775e+13
1.01753e+13
1.01731e+13
1.01709e+13
1.01687e+13
1.01666e+13
1.01645e+13
1.01625e+13
1.01605e+13
1.01585e+13
1.01566e+13
1.01546e+13
1.01527e+13
1.01509e+13
1.01491e+13
1.01473e+13
1.01455e+13
1.01438e+13
1.0142e+13
1.01403e+13
1.01386e+13
1.01369e+13
1.0135e+13
1.01328e+13
1.01304e+13
1.01278e+13
1.01253e+13
1.01231e+13
1.01217e+13
1.05187e+13
1.05082e+13
1.0498e+13
1.04881e+13
1.04784e+13
1.04689e+13
1.04598e+13
1.04509e+13
1.04423e+13
1.04339e+13
1.04258e+13
1.04179e+13
1.04103e+13
1.04028e+13
1.03956e+13
1.03886e+13
1.03817e+13
1.03751e+13
1.03686e+13
1.03623e+13
1.03561e+13
1.03502e+13
1.03443e+13
1.03386e+13
1.03331e+13
1.03277e+13
1.03224e+13
1.03172e+13
1.03122e+13
1.03072e+13
1.03024e+13
1.02977e+13
1.02931e+13
1.02886e+13
1.02842e+13
1.02799e+13
1.02757e+13
1.02716e+13
1.02676e+13
1.02636e+13
1.02598e+13
1.0256e+13
1.02523e+13
1.02486e+13
1.0245e+13
1.02416e+13
1.02381e+13
1.02348e+13
1.02315e+13
1.02282e+13
1.02251e+13
1.0222e+13
1.02189e+13
1.02159e+13
1.0213e+13
1.02101e+13
1.02072e+13
1.02044e+13
1.02017e+13
1.0199e+13
1.01964e+13
1.01938e+13
1.01912e+13
1.01887e+13
1.01863e+13
1.01839e+13
1.01815e+13
1.01791e+13
1.01768e+13
1.01746e+13
1.01723e+13
1.01702e+13
1.0168e+13
1.01659e+13
1.01638e+13
1.01618e+13
1.01597e+13
1.01578e+13
1.01558e+13
1.01539e+13
1.0152e+13
1.01501e+13
1.01483e+13
1.01465e+13
1.01447e+13
1.0143e+13
1.01413e+13
1.01396e+13
1.01379e+13
1.01361e+13
1.01342e+13
1.01321e+13
1.01297e+13
1.01273e+13
1.0125e+13
1.01229e+13
1.01215e+13
1.05125e+13
1.05029e+13
1.04935e+13
1.04841e+13
1.04749e+13
1.04658e+13
1.04569e+13
1.04483e+13
1.04399e+13
1.04317e+13
1.04237e+13
1.0416e+13
1.04084e+13
1.04011e+13
1.03939e+13
1.0387e+13
1.03802e+13
1.03736e+13
1.03672e+13
1.03609e+13
1.03548e+13
1.03489e+13
1.03431e+13
1.03374e+13
1.03319e+13
1.03265e+13
1.03213e+13
1.03161e+13
1.03111e+13
1.03062e+13
1.03014e+13
1.02967e+13
1.02922e+13
1.02877e+13
1.02833e+13
1.0279e+13
1.02748e+13
1.02707e+13
1.02667e+13
1.02628e+13
1.02589e+13
1.02551e+13
1.02514e+13
1.02478e+13
1.02442e+13
1.02408e+13
1.02373e+13
1.0234e+13
1.02307e+13
1.02275e+13
1.02243e+13
1.02212e+13
1.02182e+13
1.02152e+13
1.02122e+13
1.02093e+13
1.02065e+13
1.02037e+13
1.0201e+13
1.01983e+13
1.01957e+13
1.01931e+13
1.01905e+13
1.0188e+13
1.01856e+13
1.01831e+13
1.01808e+13
1.01784e+13
1.01761e+13
1.01739e+13
1.01716e+13
1.01695e+13
1.01673e+13
1.01652e+13
1.01631e+13
1.01611e+13
1.0159e+13
1.01571e+13
1.01551e+13
1.01532e+13
1.01513e+13
1.01494e+13
1.01476e+13
1.01458e+13
1.0144e+13
1.01423e+13
1.01406e+13
1.01389e+13
1.01372e+13
1.01354e+13
1.01335e+13
1.01314e+13
1.01292e+13
1.01269e+13
1.01248e+13
1.0123e+13
1.01215e+13
1.05041e+13
1.04958e+13
1.04873e+13
1.04786e+13
1.047e+13
1.04614e+13
1.0453e+13
1.04447e+13
1.04365e+13
1.04286e+13
1.04208e+13
1.04132e+13
1.04059e+13
1.03987e+13
1.03916e+13
1.03848e+13
1.03781e+13
1.03716e+13
1.03653e+13
1.03591e+13
1.03531e+13
1.03472e+13
1.03414e+13
1.03358e+13
1.03304e+13
1.0325e+13
1.03198e+13
1.03147e+13
1.03097e+13
1.03049e+13
1.03001e+13
1.02955e+13
1.02909e+13
1.02865e+13
1.02821e+13
1.02779e+13
1.02737e+13
1.02696e+13
1.02656e+13
1.02617e+13
1.02578e+13
1.02541e+13
1.02504e+13
1.02468e+13
1.02432e+13
1.02398e+13
1.02364e+13
1.0233e+13
1.02297e+13
1.02265e+13
1.02234e+13
1.02203e+13
1.02172e+13
1.02143e+13
1.02113e+13
1.02085e+13
1.02056e+13
1.02029e+13
1.02001e+13
1.01975e+13
1.01948e+13
1.01922e+13
1.01897e+13
1.01872e+13
1.01847e+13
1.01823e+13
1.018e+13
1.01776e+13
1.01753e+13
1.01731e+13
1.01709e+13
1.01687e+13
1.01665e+13
1.01644e+13
1.01623e+13
1.01603e+13
1.01583e+13
1.01563e+13
1.01544e+13
1.01524e+13
1.01505e+13
1.01487e+13
1.01469e+13
1.01451e+13
1.01433e+13
1.01415e+13
1.01398e+13
1.01381e+13
1.01365e+13
1.01347e+13
1.01328e+13
1.01308e+13
1.01286e+13
1.01264e+13
1.01245e+13
1.01229e+13
1.01216e+13
1.0494e+13
1.04869e+13
1.04795e+13
1.04717e+13
1.04638e+13
1.04558e+13
1.04478e+13
1.04399e+13
1.04322e+13
1.04245e+13
1.0417e+13
1.04097e+13
1.04025e+13
1.03955e+13
1.03887e+13
1.0382e+13
1.03754e+13
1.0369e+13
1.03628e+13
1.03567e+13
1.03508e+13
1.0345e+13
1.03393e+13
1.03338e+13
1.03284e+13
1.03231e+13
1.0318e+13
1.03129e+13
1.0308e+13
1.03032e+13
1.02985e+13
1.02938e+13
1.02893e+13
1.02849e+13
1.02806e+13
1.02764e+13
1.02722e+13
1.02682e+13
1.02642e+13
1.02603e+13
1.02565e+13
1.02528e+13
1.02491e+13
1.02455e+13
1.0242e+13
1.02385e+13
1.02352e+13
1.02318e+13
1.02286e+13
1.02254e+13
1.02222e+13
1.02192e+13
1.02161e+13
1.02132e+13
1.02102e+13
1.02074e+13
1.02046e+13
1.02018e+13
1.01991e+13
1.01964e+13
1.01938e+13
1.01912e+13
1.01887e+13
1.01862e+13
1.01838e+13
1.01814e+13
1.0179e+13
1.01767e+13
1.01744e+13
1.01721e+13
1.01699e+13
1.01677e+13
1.01656e+13
1.01635e+13
1.01614e+13
1.01594e+13
1.01574e+13
1.01554e+13
1.01535e+13
1.01516e+13
1.01497e+13
1.01478e+13
1.0146e+13
1.01442e+13
1.01424e+13
1.01407e+13
1.0139e+13
1.01373e+13
1.01356e+13
1.01339e+13
1.01321e+13
1.01301e+13
1.0128e+13
1.01259e+13
1.0124e+13
1.01225e+13
1.01214e+13
1.04823e+13
1.04765e+13
1.04702e+13
1.04633e+13
1.04562e+13
1.04489e+13
1.04415e+13
1.04341e+13
1.04268e+13
1.04195e+13
1.04124e+13
1.04053e+13
1.03984e+13
1.03916e+13
1.0385e+13
1.03785e+13
1.03721e+13
1.03659e+13
1.03598e+13
1.03538e+13
1.0348e+13
1.03423e+13
1.03367e+13
1.03313e+13
1.0326e+13
1.03208e+13
1.03157e+13
1.03107e+13
1.03058e+13
1.03011e+13
1.02964e+13
1.02919e+13
1.02874e+13
1.0283e+13
1.02788e+13
1.02746e+13
1.02705e+13
1.02665e+13
1.02625e+13
1.02587e+13
1.02549e+13
1.02512e+13
1.02476e+13
1.0244e+13
1.02405e+13
1.02371e+13
1.02337e+13
1.02304e+13
1.02272e+13
1.0224e+13
1.02209e+13
1.02178e+13
1.02148e+13
1.02119e+13
1.0209e+13
1.02061e+13
1.02033e+13
1.02006e+13
1.01979e+13
1.01952e+13
1.01926e+13
1.01901e+13
1.01875e+13
1.01851e+13
1.01826e+13
1.01802e+13
1.01779e+13
1.01756e+13
1.01733e+13
1.01711e+13
1.01689e+13
1.01667e+13
1.01646e+13
1.01625e+13
1.01604e+13
1.01584e+13
1.01564e+13
1.01544e+13
1.01525e+13
1.01506e+13
1.01487e+13
1.01469e+13
1.01451e+13
1.01433e+13
1.01415e+13
1.01398e+13
1.01381e+13
1.01364e+13
1.01348e+13
1.01331e+13
1.01313e+13
1.01295e+13
1.01275e+13
1.01255e+13
1.01236e+13
1.0122e+13
1.01208e+13
1.04694e+13
1.04648e+13
1.04595e+13
1.04536e+13
1.04474e+13
1.04408e+13
1.04341e+13
1.04273e+13
1.04204e+13
1.04136e+13
1.04068e+13
1.04001e+13
1.03935e+13
1.0387e+13
1.03806e+13
1.03743e+13
1.03681e+13
1.03621e+13
1.03562e+13
1.03504e+13
1.03447e+13
1.03391e+13
1.03337e+13
1.03283e+13
1.03231e+13
1.0318e+13
1.0313e+13
1.03081e+13
1.03033e+13
1.02986e+13
1.02941e+13
1.02896e+13
1.02852e+13
1.02809e+13
1.02766e+13
1.02725e+13
1.02684e+13
1.02645e+13
1.02606e+13
1.02568e+13
1.0253e+13
1.02494e+13
1.02458e+13
1.02422e+13
1.02388e+13
1.02354e+13
1.02321e+13
1.02288e+13
1.02256e+13
1.02224e+13
1.02193e+13
1.02163e+13
1.02133e+13
1.02104e+13
1.02075e+13
1.02047e+13
1.02019e+13
1.01992e+13
1.01965e+13
1.01939e+13
1.01913e+13
1.01888e+13
1.01863e+13
1.01838e+13
1.01814e+13
1.0179e+13
1.01767e+13
1.01744e+13
1.01721e+13
1.01699e+13
1.01677e+13
1.01656e+13
1.01635e+13
1.01614e+13
1.01593e+13
1.01573e+13
1.01553e+13
1.01534e+13
1.01515e+13
1.01496e+13
1.01477e+13
1.01459e+13
1.01441e+13
1.01423e+13
1.01406e+13
1.01389e+13
1.01372e+13
1.01356e+13
1.0134e+13
1.01323e+13
1.01306e+13
1.01288e+13
1.01269e+13
1.0125e+13
1.01232e+13
1.01216e+13
1.01202e+13
1.04559e+13
1.04522e+13
1.04479e+13
1.04429e+13
1.04375e+13
1.04317e+13
1.04256e+13
1.04194e+13
1.04131e+13
1.04068e+13
1.04005e+13
1.03941e+13
1.03879e+13
1.03817e+13
1.03755e+13
1.03695e+13
1.03636e+13
1.03577e+13
1.0352e+13
1.03464e+13
1.03408e+13
1.03354e+13
1.03301e+13
1.03249e+13
1.03198e+13
1.03148e+13
1.03099e+13
1.03051e+13
1.03005e+13
1.02959e+13
1.02913e+13
1.02869e+13
1.02826e+13
1.02784e+13
1.02742e+13
1.02701e+13
1.02661e+13
1.02622e+13
1.02584e+13
1.02546e+13
1.02509e+13
1.02473e+13
1.02438e+13
1.02403e+13
1.02369e+13
1.02335e+13
1.02302e+13
1.0227e+13
1.02238e+13
1.02207e+13
1.02176e+13
1.02146e+13
1.02117e+13
1.02088e+13
1.0206e+13
1.02032e+13
1.02004e+13
1.01977e+13
1.01951e+13
1.01925e+13
1.01899e+13
1.01874e+13
1.01849e+13
1.01825e+13
1.01801e+13
1.01777e+13
1.01754e+13
1.01732e+13
1.01709e+13
1.01687e+13
1.01666e+13
1.01644e+13
1.01623e+13
1.01603e+13
1.01583e+13
1.01563e+13
1.01543e+13
1.01524e+13
1.01505e+13
1.01486e+13
1.01468e+13
1.0145e+13
1.01432e+13
1.01415e+13
1.01398e+13
1.01381e+13
1.01364e+13
1.01348e+13
1.01332e+13
1.01316e+13
1.013e+13
1.01282e+13
1.01264e+13
1.01246e+13
1.01229e+13
1.01213e+13
1.012e+13
1.04422e+13
1.04392e+13
1.04356e+13
1.04315e+13
1.04268e+13
1.04217e+13
1.04163e+13
1.04108e+13
1.0405e+13
1.03992e+13
1.03933e+13
1.03874e+13
1.03815e+13
1.03756e+13
1.03698e+13
1.03641e+13
1.03584e+13
1.03528e+13
1.03473e+13
1.03418e+13
1.03365e+13
1.03313e+13
1.03261e+13
1.03211e+13
1.03161e+13
1.03113e+13
1.03065e+13
1.03018e+13
1.02972e+13
1.02927e+13
1.02883e+13
1.0284e+13
1.02797e+13
1.02756e+13
1.02715e+13
1.02675e+13
1.02636e+13
1.02597e+13
1.0256e+13
1.02523e+13
1.02486e+13
1.02451e+13
1.02416e+13
1.02381e+13
1.02348e+13
1.02315e+13
1.02282e+13
1.0225e+13
1.02219e+13
1.02188e+13
1.02158e+13
1.02129e+13
1.021e+13
1.02071e+13
1.02043e+13
1.02015e+13
1.01988e+13
1.01962e+13
1.01936e+13
1.0191e+13
1.01885e+13
1.0186e+13
1.01835e+13
1.01811e+13
1.01788e+13
1.01765e+13
1.01742e+13
1.01719e+13
1.01697e+13
1.01676e+13
1.01654e+13
1.01633e+13
1.01613e+13
1.01592e+13
1.01573e+13
1.01553e+13
1.01534e+13
1.01515e+13
1.01496e+13
1.01478e+13
1.0146e+13
1.01442e+13
1.01424e+13
1.01407e+13
1.0139e+13
1.01374e+13
1.01357e+13
1.01341e+13
1.01326e+13
1.0131e+13
1.01294e+13
1.01277e+13
1.0126e+13
1.01242e+13
1.01226e+13
1.01212e+13
1.01201e+13
1.04289e+13
1.04264e+13
1.04234e+13
1.04198e+13
1.04157e+13
1.04112e+13
1.04065e+13
1.04015e+13
1.03963e+13
1.03909e+13
1.03855e+13
1.038e+13
1.03745e+13
1.0369e+13
1.03635e+13
1.03581e+13
1.03527e+13
1.03474e+13
1.03421e+13
1.03369e+13
1.03317e+13
1.03267e+13
1.03217e+13
1.03168e+13
1.0312e+13
1.03073e+13
1.03027e+13
1.02981e+13
1.02937e+13
1.02893e+13
1.0285e+13
1.02808e+13
1.02766e+13
1.02726e+13
1.02686e+13
1.02647e+13
1.02608e+13
1.02571e+13
1.02534e+13
1.02497e+13
1.02462e+13
1.02427e+13
1.02392e+13
1.02359e+13
1.02326e+13
1.02293e+13
1.02261e+13
1.0223e+13
1.02199e+13
1.02169e+13
1.02139e+13
1.0211e+13
1.02082e+13
1.02054e+13
1.02026e+13
1.01999e+13
1.01972e+13
1.01946e+13
1.0192e+13
1.01895e+13
1.0187e+13
1.01846e+13
1.01822e+13
1.01798e+13
1.01775e+13
1.01752e+13
1.0173e+13
1.01708e+13
1.01686e+13
1.01665e+13
1.01644e+13
1.01623e+13
1.01603e+13
1.01583e+13
1.01563e+13
1.01544e+13
1.01525e+13
1.01506e+13
1.01488e+13
1.0147e+13
1.01452e+13
1.01434e+13
1.01417e+13
1.014e+13
1.01384e+13
1.01367e+13
1.01351e+13
1.01336e+13
1.0132e+13
1.01305e+13
1.01289e+13
1.01273e+13
1.01256e+13
1.01239e+13
1.01224e+13
1.01211e+13
1.012e+13
1.0416e+13
1.04139e+13
1.04113e+13
1.04082e+13
1.04046e+13
1.04007e+13
1.03964e+13
1.03919e+13
1.03872e+13
1.03823e+13
1.03773e+13
1.03723e+13
1.03671e+13
1.0362e+13
1.03568e+13
1.03517e+13
1.03466e+13
1.03415e+13
1.03365e+13
1.03315e+13
1.03266e+13
1.03218e+13
1.0317e+13
1.03123e+13
1.03077e+13
1.03031e+13
1.02986e+13
1.02942e+13
1.02899e+13
1.02856e+13
1.02815e+13
1.02774e+13
1.02733e+13
1.02694e+13
1.02655e+13
1.02617e+13
1.02579e+13
1.02542e+13
1.02506e+13
1.02471e+13
1.02436e+13
1.02402e+13
1.02368e+13
1.02335e+13
1.02303e+13
1.02271e+13
1.0224e+13
1.02209e+13
1.02179e+13
1.02149e+13
1.0212e+13
1.02092e+13
1.02064e+13
1.02036e+13
1.02009e+13
1.01982e+13
1.01956e+13
1.01931e+13
1.01905e+13
1.0188e+13
1.01856e+13
1.01832e+13
1.01809e+13
1.01785e+13
1.01763e+13
1.0174e+13
1.01718e+13
1.01696e+13
1.01675e+13
1.01654e+13
1.01634e+13
1.01613e+13
1.01593e+13
1.01574e+13
1.01554e+13
1.01536e+13
1.01517e+13
1.01498e+13
1.0148e+13
1.01463e+13
1.01445e+13
1.01428e+13
1.01411e+13
1.01394e+13
1.01378e+13
1.01362e+13
1.01346e+13
1.0133e+13
1.01315e+13
1.013e+13
1.01284e+13
1.01268e+13
1.01252e+13
1.01237e+13
1.01222e+13
1.01209e+13
1.01196e+13
1.04036e+13
1.04019e+13
1.03997e+13
1.03969e+13
1.03938e+13
1.03903e+13
1.03864e+13
1.03823e+13
1.0378e+13
1.03736e+13
1.0369e+13
1.03643e+13
1.03596e+13
1.03548e+13
1.03499e+13
1.03451e+13
1.03403e+13
1.03355e+13
1.03307e+13
1.0326e+13
1.03213e+13
1.03167e+13
1.03121e+13
1.03076e+13
1.03031e+13
1.02987e+13
1.02944e+13
1.02902e+13
1.0286e+13
1.02819e+13
1.02778e+13
1.02738e+13
1.02699e+13
1.02661e+13
1.02623e+13
1.02586e+13
1.02549e+13
1.02513e+13
1.02478e+13
1.02444e+13
1.0241e+13
1.02376e+13
1.02343e+13
1.02311e+13
1.0228e+13
1.02249e+13
1.02218e+13
1.02188e+13
1.02159e+13
1.0213e+13
1.02101e+13
1.02073e+13
1.02046e+13
1.02019e+13
1.01992e+13
1.01966e+13
1.01941e+13
1.01915e+13
1.01891e+13
1.01866e+13
1.01842e+13
1.01819e+13
1.01796e+13
1.01773e+13
1.01751e+13
1.01729e+13
1.01707e+13
1.01686e+13
1.01665e+13
1.01644e+13
1.01624e+13
1.01604e+13
1.01584e+13
1.01565e+13
1.01546e+13
1.01528e+13
1.01509e+13
1.01491e+13
1.01473e+13
1.01456e+13
1.01439e+13
1.01422e+13
1.01405e+13
1.01388e+13
1.01372e+13
1.01356e+13
1.01341e+13
1.01325e+13
1.0131e+13
1.01295e+13
1.0128e+13
1.01264e+13
1.01249e+13
1.01234e+13
1.01219e+13
1.01206e+13
1.01193e+13
1.03927e+13
1.03918e+13
1.03904e+13
1.03884e+13
1.03861e+13
1.03833e+13
1.03801e+13
1.03767e+13
1.0373e+13
1.0369e+13
1.03649e+13
1.03607e+13
1.03564e+13
1.0352e+13
1.03475e+13
1.0343e+13
1.03384e+13
1.03339e+13
1.03293e+13
1.03248e+13
1.03203e+13
1.03159e+13
1.03114e+13
1.03071e+13
1.03027e+13
1.02985e+13
1.02943e+13
1.02901e+13
1.0286e+13
1.0282e+13
1.0278e+13
1.02741e+13
1.02702e+13
1.02664e+13
1.02627e+13
1.02591e+13
1.02554e+13
1.02519e+13
1.02484e+13
1.0245e+13
1.02416e+13
1.02383e+13
1.02351e+13
1.02319e+13
1.02287e+13
1.02257e+13
1.02226e+13
1.02197e+13
1.02167e+13
1.02139e+13
1.0211e+13
1.02082e+13
1.02055e+13
1.02028e+13
1.02002e+13
1.01976e+13
1.0195e+13
1.01925e+13
1.01901e+13
1.01876e+13
1.01853e+13
1.01829e+13
1.01806e+13
1.01783e+13
1.01761e+13
1.01739e+13
1.01717e+13
1.01696e+13
1.01675e+13
1.01655e+13
1.01635e+13
1.01615e+13
1.01595e+13
1.01576e+13
1.01557e+13
1.01538e+13
1.0152e+13
1.01502e+13
1.01484e+13
1.01466e+13
1.01449e+13
1.01432e+13
1.01415e+13
1.01399e+13
1.01383e+13
1.01367e+13
1.01351e+13
1.01336e+13
1.0132e+13
1.01305e+13
1.01291e+13
1.01276e+13
1.0126e+13
1.01245e+13
1.0123e+13
1.01216e+13
1.01204e+13
1.01192e+13
1.03812e+13
1.03805e+13
1.03793e+13
1.03776e+13
1.03756e+13
1.03731e+13
1.03703e+13
1.03672e+13
1.03638e+13
1.03602e+13
1.03565e+13
1.03526e+13
1.03486e+13
1.03444e+13
1.03403e+13
1.0336e+13
1.03318e+13
1.03275e+13
1.03232e+13
1.03189e+13
1.03147e+13
1.03104e+13
1.03062e+13
1.0302e+13
1.02979e+13
1.02938e+13
1.02898e+13
1.02858e+13
1.02819e+13
1.0278e+13
1.02741e+13
1.02704e+13
1.02666e+13
1.0263e+13
1.02594e+13
1.02558e+13
1.02523e+13
1.02489e+13
1.02455e+13
1.02422e+13
1.02389e+13
1.02357e+13
1.02326e+13
1.02294e+13
1.02264e+13
1.02234e+13
1.02204e+13
1.02175e+13
1.02147e+13
1.02119e+13
1.02091e+13
1.02064e+13
1.02037e+13
1.02011e+13
1.01985e+13
1.0196e+13
1.01935e+13
1.0191e+13
1.01886e+13
1.01862e+13
1.01839e+13
1.01816e+13
1.01793e+13
1.01771e+13
1.01749e+13
1.01727e+13
1.01706e+13
1.01685e+13
1.01665e+13
1.01645e+13
1.01625e+13
1.01605e+13
1.01586e+13
1.01567e+13
1.01548e+13
1.0153e+13
1.01512e+13
1.01494e+13
1.01476e+13
1.01459e+13
1.01442e+13
1.01425e+13
1.01409e+13
1.01393e+13
1.01377e+13
1.01361e+13
1.01345e+13
1.0133e+13
1.01315e+13
1.013e+13
1.01286e+13
1.01271e+13
1.01256e+13
1.01241e+13
1.01226e+13
1.01213e+13
1.01201e+13
1.0119e+13
1.03702e+13
1.03697e+13
1.03687e+13
1.03673e+13
1.03654e+13
1.03633e+13
1.03608e+13
1.0358e+13
1.03549e+13
1.03517e+13
1.03482e+13
1.03446e+13
1.03409e+13
1.03371e+13
1.03332e+13
1.03292e+13
1.03252e+13
1.03212e+13
1.03172e+13
1.03131e+13
1.03091e+13
1.0305e+13
1.0301e+13
1.02971e+13
1.02931e+13
1.02892e+13
1.02853e+13
1.02815e+13
1.02777e+13
1.0274e+13
1.02703e+13
1.02667e+13
1.02631e+13
1.02595e+13
1.0256e+13
1.02526e+13
1.02492e+13
1.02459e+13
1.02426e+13
1.02394e+13
1.02362e+13
1.02331e+13
1.023e+13
1.0227e+13
1.0224e+13
1.02211e+13
1.02182e+13
1.02154e+13
1.02126e+13
1.02099e+13
1.02072e+13
1.02045e+13
1.02019e+13
1.01993e+13
1.01968e+13
1.01943e+13
1.01919e+13
1.01895e+13
1.01871e+13
1.01848e+13
1.01825e+13
1.01802e+13
1.0178e+13
1.01758e+13
1.01737e+13
1.01716e+13
1.01695e+13
1.01674e+13
1.01654e+13
1.01634e+13
1.01615e+13
1.01596e+13
1.01577e+13
1.01558e+13
1.0154e+13
1.01521e+13
1.01504e+13
1.01486e+13
1.01469e+13
1.01452e+13
1.01435e+13
1.01418e+13
1.01402e+13
1.01386e+13
1.0137e+13
1.01355e+13
1.01339e+13
1.01324e+13
1.0131e+13
1.01295e+13
1.0128e+13
1.01266e+13
1.01251e+13
1.01236e+13
1.01222e+13
1.01209e+13
1.01198e+13
1.01187e+13
1.03597e+13
1.03594e+13
1.03585e+13
1.03573e+13
1.03557e+13
1.03538e+13
1.03515e+13
1.0349e+13
1.03463e+13
1.03433e+13
1.03401e+13
1.03368e+13
1.03334e+13
1.03299e+13
1.03262e+13
1.03225e+13
1.03188e+13
1.0315e+13
1.03112e+13
1.03074e+13
1.03035e+13
1.02997e+13
1.02959e+13
1.02921e+13
1.02884e+13
1.02846e+13
1.02809e+13
1.02773e+13
1.02736e+13
1.027e+13
1.02665e+13
1.0263e+13
1.02595e+13
1.02561e+13
1.02527e+13
1.02494e+13
1.02462e+13
1.02429e+13
1.02398e+13
1.02366e+13
1.02335e+13
1.02305e+13
1.02275e+13
1.02246e+13
1.02217e+13
1.02188e+13
1.0216e+13
1.02133e+13
1.02106e+13
1.02079e+13
1.02053e+13
1.02027e+13
1.02001e+13
1.01976e+13
1.01951e+13
1.01927e+13
1.01903e+13
1.0188e+13
1.01856e+13
1.01834e+13
1.01811e+13
1.01789e+13
1.01767e+13
1.01746e+13
1.01725e+13
1.01704e+13
1.01683e+13
1.01663e+13
1.01643e+13
1.01624e+13
1.01605e+13
1.01586e+13
1.01567e+13
1.01549e+13
1.0153e+13
1.01513e+13
1.01495e+13
1.01478e+13
1.01461e+13
1.01444e+13
1.01427e+13
1.01411e+13
1.01395e+13
1.01379e+13
1.01364e+13
1.01348e+13
1.01333e+13
1.01318e+13
1.01304e+13
1.01289e+13
1.01275e+13
1.0126e+13
1.01246e+13
1.01231e+13
1.01217e+13
1.01205e+13
1.01193e+13
1.01183e+13
1.03497e+13
1.03496e+13
1.03487e+13
1.03477e+13
1.03463e+13
1.03446e+13
1.03426e+13
1.03404e+13
1.03379e+13
1.03352e+13
1.03323e+13
1.03292e+13
1.03261e+13
1.03228e+13
1.03194e+13
1.0316e+13
1.03125e+13
1.03089e+13
1.03053e+13
1.03017e+13
1.02981e+13
1.02945e+13
1.02909e+13
1.02872e+13
1.02837e+13
1.02801e+13
1.02765e+13
1.0273e+13
1.02696e+13
1.02661e+13
1.02627e+13
1.02593e+13
1.0256e+13
1.02527e+13
1.02494e+13
1.02462e+13
1.02431e+13
1.024e+13
1.02369e+13
1.02338e+13
1.02309e+13
1.02279e+13
1.0225e+13
1.02222e+13
1.02193e+13
1.02166e+13
1.02138e+13
1.02111e+13
1.02085e+13
1.02059e+13
1.02033e+13
1.02008e+13
1.01983e+13
1.01958e+13
1.01934e+13
1.0191e+13
1.01887e+13
1.01864e+13
1.01841e+13
1.01819e+13
1.01797e+13
1.01775e+13
1.01754e+13
1.01733e+13
1.01712e+13
1.01692e+13
1.01672e+13
1.01652e+13
1.01632e+13
1.01613e+13
1.01594e+13
1.01575e+13
1.01557e+13
1.01539e+13
1.01521e+13
1.01504e+13
1.01486e+13
1.01469e+13
1.01452e+13
1.01436e+13
1.0142e+13
1.01404e+13
1.01388e+13
1.01372e+13
1.01357e+13
1.01342e+13
1.01327e+13
1.01312e+13
1.01297e+13
1.01283e+13
1.01269e+13
1.01254e+13
1.0124e+13
1.01226e+13
1.01213e+13
1.012e+13
1.01188e+13
1.01178e+13
1.03401e+13
1.03402e+13
1.03394e+13
1.03386e+13
1.03373e+13
1.03358e+13
1.0334e+13
1.0332e+13
1.03297e+13
1.03273e+13
1.03246e+13
1.03218e+13
1.03189e+13
1.03159e+13
1.03127e+13
1.03095e+13
1.03062e+13
1.03029e+13
1.02995e+13
1.02961e+13
1.02927e+13
1.02893e+13
1.02858e+13
1.02824e+13
1.0279e+13
1.02756e+13
1.02722e+13
1.02688e+13
1.02655e+13
1.02622e+13
1.02589e+13
1.02557e+13
1.02525e+13
1.02493e+13
1.02462e+13
1.02431e+13
1.024e+13
1.0237e+13
1.0234e+13
1.02311e+13
1.02282e+13
1.02253e+13
1.02225e+13
1.02197e+13
1.0217e+13
1.02143e+13
1.02116e+13
1.0209e+13
1.02064e+13
1.02039e+13
1.02014e+13
1.01989e+13
1.01965e+13
1.01941e+13
1.01917e+13
1.01894e+13
1.01871e+13
1.01848e+13
1.01826e+13
1.01804e+13
1.01782e+13
1.01761e+13
1.0174e+13
1.0172e+13
1.01699e+13
1.01679e+13
1.01659e+13
1.0164e+13
1.01621e+13
1.01602e+13
1.01583e+13
1.01565e+13
1.01547e+13
1.01529e+13
1.01512e+13
1.01494e+13
1.01477e+13
1.0146e+13
1.01444e+13
1.01428e+13
1.01412e+13
1.01396e+13
1.0138e+13
1.01365e+13
1.0135e+13
1.01335e+13
1.0132e+13
1.01305e+13
1.01291e+13
1.01277e+13
1.01262e+13
1.01248e+13
1.01234e+13
1.01221e+13
1.01207e+13
1.01195e+13
1.01183e+13
1.01172e+13
1.03311e+13
1.03311e+13
1.03305e+13
1.03298e+13
1.03287e+13
1.03274e+13
1.03258e+13
1.03239e+13
1.03219e+13
1.03196e+13
1.03172e+13
1.03146e+13
1.03119e+13
1.03091e+13
1.03062e+13
1.03032e+13
1.03001e+13
1.0297e+13
1.02938e+13
1.02906e+13
1.02874e+13
1.02842e+13
1.02809e+13
1.02776e+13
1.02744e+13
1.02711e+13
1.02679e+13
1.02647e+13
1.02615e+13
1.02583e+13
1.02552e+13
1.02521e+13
1.0249e+13
1.02459e+13
1.02429e+13
1.02399e+13
1.02369e+13
1.0234e+13
1.02311e+13
1.02283e+13
1.02255e+13
1.02227e+13
1.022e+13
1.02173e+13
1.02146e+13
1.0212e+13
1.02094e+13
1.02068e+13
1.02043e+13
1.02018e+13
1.01994e+13
1.0197e+13
1.01946e+13
1.01923e+13
1.019e+13
1.01877e+13
1.01854e+13
1.01832e+13
1.01811e+13
1.01789e+13
1.01768e+13
1.01747e+13
1.01727e+13
1.01706e+13
1.01686e+13
1.01667e+13
1.01647e+13
1.01628e+13
1.01609e+13
1.01591e+13
1.01572e+13
1.01554e+13
1.01537e+13
1.01519e+13
1.01502e+13
1.01485e+13
1.01468e+13
1.01452e+13
1.01435e+13
1.01419e+13
1.01403e+13
1.01388e+13
1.01372e+13
1.01357e+13
1.01342e+13
1.01327e+13
1.01313e+13
1.01298e+13
1.01284e+13
1.0127e+13
1.01256e+13
1.01242e+13
1.01228e+13
1.01215e+13
1.01202e+13
1.01189e+13
1.01177e+13
1.01167e+13
1.03224e+13
1.03225e+13
1.0322e+13
1.03214e+13
1.03205e+13
1.03193e+13
1.03178e+13
1.03162e+13
1.03143e+13
1.03123e+13
1.031e+13
1.03077e+13
1.03052e+13
1.03026e+13
1.02998e+13
1.0297e+13
1.02942e+13
1.02912e+13
1.02883e+13
1.02852e+13
1.02822e+13
1.02791e+13
1.0276e+13
1.02729e+13
1.02698e+13
1.02668e+13
1.02637e+13
1.02606e+13
1.02575e+13
1.02545e+13
1.02515e+13
1.02485e+13
1.02455e+13
1.02426e+13
1.02396e+13
1.02368e+13
1.02339e+13
1.02311e+13
1.02283e+13
1.02255e+13
1.02228e+13
1.02201e+13
1.02175e+13
1.02148e+13
1.02123e+13
1.02097e+13
1.02072e+13
1.02047e+13
1.02022e+13
1.01998e+13
1.01974e+13
1.01951e+13
1.01928e+13
1.01905e+13
1.01882e+13
1.0186e+13
1.01838e+13
1.01816e+13
1.01795e+13
1.01774e+13
1.01753e+13
1.01733e+13
1.01713e+13
1.01693e+13
1.01673e+13
1.01654e+13
1.01635e+13
1.01616e+13
1.01598e+13
1.01579e+13
1.01561e+13
1.01544e+13
1.01526e+13
1.01509e+13
1.01492e+13
1.01475e+13
1.01459e+13
1.01442e+13
1.01426e+13
1.01411e+13
1.01395e+13
1.0138e+13
1.01364e+13
1.01349e+13
1.01335e+13
1.0132e+13
1.01306e+13
1.01291e+13
1.01277e+13
1.01264e+13
1.0125e+13
1.01236e+13
1.01223e+13
1.01209e+13
1.01197e+13
1.01184e+13
1.01172e+13
1.01161e+13
1.03141e+13
1.03142e+13
1.03139e+13
1.03133e+13
1.03125e+13
1.03115e+13
1.03102e+13
1.03087e+13
1.0307e+13
1.03051e+13
1.03031e+13
1.03009e+13
1.02986e+13
1.02962e+13
1.02937e+13
1.0291e+13
1.02884e+13
1.02856e+13
1.02828e+13
1.028e+13
1.02771e+13
1.02742e+13
1.02712e+13
1.02683e+13
1.02654e+13
1.02624e+13
1.02595e+13
1.02565e+13
1.02536e+13
1.02507e+13
1.02478e+13
1.02449e+13
1.02421e+13
1.02392e+13
1.02364e+13
1.02336e+13
1.02309e+13
1.02282e+13
1.02255e+13
1.02228e+13
1.02201e+13
1.02175e+13
1.0215e+13
1.02124e+13
1.02099e+13
1.02074e+13
1.0205e+13
1.02026e+13
1.02002e+13
1.01978e+13
1.01955e+13
1.01932e+13
1.01909e+13
1.01887e+13
1.01865e+13
1.01843e+13
1.01822e+13
1.01801e+13
1.0178e+13
1.01759e+13
1.01739e+13
1.01719e+13
1.01699e+13
1.0168e+13
1.0166e+13
1.01641e+13
1.01623e+13
1.01604e+13
1.01586e+13
1.01568e+13
1.0155e+13
1.01533e+13
1.01516e+13
1.01499e+13
1.01482e+13
1.01466e+13
1.01449e+13
1.01433e+13
1.01418e+13
1.01402e+13
1.01387e+13
1.01371e+13
1.01356e+13
1.01342e+13
1.01327e+13
1.01313e+13
1.01299e+13
1.01285e+13
1.01271e+13
1.01257e+13
1.01243e+13
1.0123e+13
1.01217e+13
1.01204e+13
1.01191e+13
1.01179e+13
1.01166e+13
1.01155e+13
1.03062e+13
1.03063e+13
1.0306e+13
1.03056e+13
1.03049e+13
1.0304e+13
1.03028e+13
1.03015e+13
1.02999e+13
1.02982e+13
1.02964e+13
1.02944e+13
1.02922e+13
1.029e+13
1.02876e+13
1.02852e+13
1.02827e+13
1.02801e+13
1.02775e+13
1.02748e+13
1.02721e+13
1.02693e+13
1.02666e+13
1.02638e+13
1.0261e+13
1.02582e+13
1.02554e+13
1.02525e+13
1.02497e+13
1.0247e+13
1.02442e+13
1.02414e+13
1.02387e+13
1.02359e+13
1.02332e+13
1.02305e+13
1.02279e+13
1.02253e+13
1.02226e+13
1.02201e+13
1.02175e+13
1.0215e+13
1.02125e+13
1.021e+13
1.02076e+13
1.02052e+13
1.02028e+13
1.02004e+13
1.01981e+13
1.01958e+13
1.01935e+13
1.01913e+13
1.01891e+13
1.01869e+13
1.01848e+13
1.01826e+13
1.01805e+13
1.01785e+13
1.01764e+13
1.01744e+13
1.01724e+13
1.01705e+13
1.01685e+13
1.01666e+13
1.01647e+13
1.01629e+13
1.0161e+13
1.01592e+13
1.01574e+13
1.01557e+13
1.01539e+13
1.01522e+13
1.01505e+13
1.01489e+13
1.01472e+13
1.01456e+13
1.0144e+13
1.01424e+13
1.01409e+13
1.01393e+13
1.01378e+13
1.01363e+13
1.01348e+13
1.01334e+13
1.0132e+13
1.01305e+13
1.01291e+13
1.01278e+13
1.01264e+13
1.0125e+13
1.01237e+13
1.01224e+13
1.01211e+13
1.01198e+13
1.01186e+13
1.01173e+13
1.0116e+13
1.01149e+13
1.02986e+13
1.02987e+13
1.02986e+13
1.02982e+13
1.02976e+13
1.02967e+13
1.02957e+13
1.02945e+13
1.02931e+13
1.02916e+13
1.02899e+13
1.0288e+13
1.0286e+13
1.0284e+13
1.02818e+13
1.02795e+13
1.02772e+13
1.02747e+13
1.02723e+13
1.02697e+13
1.02672e+13
1.02646e+13
1.0262e+13
1.02593e+13
1.02566e+13
1.0254e+13
1.02513e+13
1.02486e+13
1.02459e+13
1.02433e+13
1.02406e+13
1.02379e+13
1.02353e+13
1.02327e+13
1.02301e+13
1.02275e+13
1.02249e+13
1.02224e+13
1.02199e+13
1.02174e+13
1.02149e+13
1.02124e+13
1.021e+13
1.02076e+13
1.02052e+13
1.02029e+13
1.02006e+13
1.01983e+13
1.0196e+13
1.01938e+13
1.01916e+13
1.01894e+13
1.01873e+13
1.01851e+13
1.0183e+13
1.01809e+13
1.01789e+13
1.01769e+13
1.01749e+13
1.01729e+13
1.0171e+13
1.0169e+13
1.01671e+13
1.01653e+13
1.01634e+13
1.01616e+13
1.01598e+13
1.0158e+13
1.01563e+13
1.01545e+13
1.01528e+13
1.01512e+13
1.01495e+13
1.01479e+13
1.01462e+13
1.01446e+13
1.01431e+13
1.01415e+13
1.014e+13
1.01385e+13
1.0137e+13
1.01355e+13
1.0134e+13
1.01326e+13
1.01312e+13
1.01298e+13
1.01284e+13
1.01271e+13
1.01257e+13
1.01244e+13
1.0123e+13
1.01217e+13
1.01205e+13
1.01192e+13
1.0118e+13
1.01167e+13
1.01155e+13
1.01143e+13
1.02913e+13
1.02914e+13
1.02914e+13
1.0291e+13
1.02905e+13
1.02898e+13
1.02889e+13
1.02878e+13
1.02865e+13
1.02851e+13
1.02836e+13
1.02819e+13
1.028e+13
1.02781e+13
1.02761e+13
1.0274e+13
1.02718e+13
1.02695e+13
1.02672e+13
1.02648e+13
1.02624e+13
1.02599e+13
1.02574e+13
1.02549e+13
1.02524e+13
1.02499e+13
1.02473e+13
1.02447e+13
1.02422e+13
1.02396e+13
1.02371e+13
1.02345e+13
1.0232e+13
1.02295e+13
1.0227e+13
1.02245e+13
1.0222e+13
1.02195e+13
1.02171e+13
1.02147e+13
1.02123e+13
1.02099e+13
1.02076e+13
1.02052e+13
1.02029e+13
1.02007e+13
1.01984e+13
1.01962e+13
1.0194e+13
1.01918e+13
1.01897e+13
1.01875e+13
1.01854e+13
1.01834e+13
1.01813e+13
1.01793e+13
1.01773e+13
1.01753e+13
1.01733e+13
1.01714e+13
1.01695e+13
1.01676e+13
1.01658e+13
1.01639e+13
1.01621e+13
1.01603e+13
1.01586e+13
1.01568e+13
1.01551e+13
1.01534e+13
1.01517e+13
1.01501e+13
1.01485e+13
1.01468e+13
1.01452e+13
1.01437e+13
1.01421e+13
1.01406e+13
1.01391e+13
1.01376e+13
1.01361e+13
1.01347e+13
1.01332e+13
1.01318e+13
1.01304e+13
1.01291e+13
1.01277e+13
1.01264e+13
1.0125e+13
1.01237e+13
1.01224e+13
1.01211e+13
1.01199e+13
1.01186e+13
1.01174e+13
1.01162e+13
1.01149e+13
1.01138e+13
1.0284e+13
1.02844e+13
1.02845e+13
1.02846e+13
1.02842e+13
1.02838e+13
1.02832e+13
1.02823e+13
1.02813e+13
1.02802e+13
1.02789e+13
1.02775e+13
1.02759e+13
1.02742e+13
1.02724e+13
1.02705e+13
1.02686e+13
1.02665e+13
1.02644e+13
1.02622e+13
1.026e+13
1.02577e+13
1.02554e+13
1.0253e+13
1.02506e+13
1.02482e+13
1.02458e+13
1.02434e+13