/*--------------------------------*- C++ -*----------------------------------*\
| =========                 |                                                 |
| \\      /  F ield         | OpenFOAM: The Open Source CFD Toolbox           |
|  \\    /   O peration     | Version:  2406                                  |
|   \\  /    A nd           | Website:  www.openfoam.com                      |
|    \\/     M anipulation  |                                                 |
\*---------------------------------------------------------------------------*/
FoamFile
{
    version     2.0;
    format      ascii;
    arch        "LSB;label=32;scalar=64";
    class       volScalarField;
    location    "6e-05";
    object      voltExt;
}
// * * * * * * * * * * * * * * * * * * * * * * * * * * * * * * * * * * * * * //

dimensions      [1 2 -3 0 0 -1 0];

internalField   nonuniform List<scalar> 
61540
(
237.6250168
388.4822246
696.4020921
1161.472038
1714.211806
2271.217214
2784.520143
3233.641145
3611.262735
3916.978568
4176.739223
4453.84975
4807.139151
5320.2163
241.3527916
394.0378853
704.6576963
1171.954937
1725.96738
2284.274849
2799.853714
3252.655284
3635.488607
3947.903547
4216.213151
4506.846893
4885.890008
5435.799957
245.0688405
399.554757
712.7969967
1182.175767
1737.226735
2296.418648
2813.504047
3268.64376
3654.51875
3970.395391
4242.464072
4537.741843
4921.923768
5467.835255
248.7730257
405.0325745
720.8198254
1192.134834
1747.989273
2307.642884
2825.451535
3281.554856
3668.233242
3984.222095
4255.163701
4546.410674
4917.525256
5431.340132
5031.538467
4206.574641
3610.622346
3118.914572
2689.78818
2304.90364
1956.2262
1641.762215
1363.305087
5226.789086
4359.232368
3728.388899
3221.232296
2787.582186
2404.313691
2060.793198
1753.050776
1480.831341
5284.538941
4436.99258
3807.020042
3300.292219
2869.435159
2491.146795
2154.039988
1853.100051
1586.763218
5235.001516
4445.911181
3846.655618
3355.346096
2934.655384
2564.949892
2235.843139
1942.20056
1681.811631
1121.310893
919.1171115
756.6963409
628.3224099
527.4485233
448.0675658
385.2208708
335.0289597
294.5359341
261.5151328
234.2939196
211.6132358
192.520695
176.2913185
162.3694256
150.3257265
139.8255847
130.6060657
122.4592746
115.2195391
108.7534806
102.9529935
97.73038516
93.01431737
88.74626512
84.87815236
81.37111107
78.19447073
75.32461806
72.74431044
70.44291194
68.41717351
66.67205267
65.22187369
64.09258468
63.32540789
62.98169131
63.1489197
63.94803255
65.54127047
68.13683133
71.98091993
77.31945686
84.30855137
1242.577569
1040.178625
873.8944566
739.2057223
630.7949748
543.5531113
473.0657702
415.7351097
368.7218586
329.8223519
297.3375136
269.9585724
246.6756578
226.7066202
209.4421068
194.4039058
181.2141204
169.5724824
159.2389119
150.0196767
141.7570786
134.3223949
127.6105456
121.5351622
116.0245273
111.0193055
106.4713521
102.3422323
98.60153789
95.22614239
92.20067971
89.51828805
87.18097311
85.20031826
83.59957584
82.41706576
81.71008705
81.55906328
82.07207327
83.38877087
85.67981541
89.13404702
93.92232324
100.1300049
1352.188089
1150.315897
981.5351047
842.1394657
727.7377537
633.9708387
556.9308355
493.3198779
440.4532912
396.1894312
358.8366969
327.0646221
299.8279959
276.3039777
255.8415481
237.9228295
222.1340883
208.1432392
195.6817225
184.5304779
174.5099844
165.4730115
157.2983747
149.8853596
143.1497766
137.0219072
131.4449239
126.3727221
121.7680253
117.6019369
113.8545199
110.5151162
107.5821881
105.0638429
102.9798865
101.3647775
100.2703928
99.76846787
99.95299145
100.9413993
102.870847
105.8836744
110.0959197
115.547737
1451.108857
1250.443052
1080.28651
937.5124497
818.4387923
719.3288263
636.7333116
567.6542844
509.5826982
460.4661318
418.6474791
382.7984273
351.8574554
324.9755149
301.4714317
280.7971163
262.5101796
246.2516794
231.7283
218.6989801
206.965162
196.3629321
186.7560941
178.0305978
170.090911
162.8577863
156.2660396
150.2619875
144.8017106
139.8508444
135.3849375
131.3892218
127.8581288
124.7958303
122.2181763
120.1549848
118.6516684
117.7703285
117.5906359
118.2092081
119.7341499
122.2706258
125.8946735
130.6173065
92.92100344
102.8025085
113.3557885
124.0529044
134.492971
144.4156971
153.6752838
162.2063979
169.9952945
177.0589613
183.4313096
189.1545566
194.2740769
198.8354109
202.8825635
206.4570825
209.597642
212.3399525
214.7168529
216.7584707
218.4923924
219.9438355
221.135839
222.0894751
222.8240608
223.3573396
223.7056195
223.8838768
223.9058527
223.7841616
223.5304122
223.1553253
222.6688292
222.0801243
221.3977253
220.6294966
219.782695
218.864026
217.8797036
216.8355063
215.7368178
214.5886528
213.3956732
212.1622024
210.8922445
209.5895102
208.2574452
206.8992579
205.5179406
204.1162844
202.6968888
201.2621684
199.8143609
198.3555376
196.8876158
195.4123729
193.9314596
192.4464108
190.9586541
189.4695161
187.9802269
186.4919242
185.0056581
183.522396
182.0430281
180.5683738
179.0991865
177.6361599
176.1799315
174.7310873
173.2901649
171.8576565
170.434012
169.019641
167.6149159
166.2201739
164.835719
163.4618243
162.0987337
160.7466636
159.4058049
158.0763239
156.7583648
155.4520505
154.1574849
152.8747536
151.6039262
150.3450569
149.0981864
147.8633424
146.6405412
145.429788
144.2310782
143.0443978
141.8697237
140.7070249
139.5562628
138.4173913
137.2903578
136.1751035
135.0715638
133.9796688
132.8993438
131.8305097
130.7730834
129.7269782
128.6921041
127.6683682
126.6556749
125.6539265
124.6630231
123.6828631
122.7133433
121.7543592
120.8058052
119.8675749
118.9395607
118.0216548
117.1137488
116.2157339
115.3275011
114.4489414
113.5799458
112.7204053
111.8702111
111.0292549
110.1974286
109.3746246
108.5607357
107.7556552
106.9592774
106.1714968
105.3922089
104.6213098
103.8586965
103.1042667
102.3579189
101.6195527
100.8890683
100.1663672
99.45135127
98.74392385
98.04398895
97.35145162
96.66621793
95.98819489
95.31729051
94.65341385
93.99647493
93.34638482
92.70305561
92.06640042
91.43633338
90.81276966
90.19562548
89.58481805
88.98026563
88.38188758
87.78960424
87.20333708
86.62300862
86.04854244
85.47986325
84.91689684
84.35957016
83.80781122
83.26154925
82.72071452
82.18523842
81.65505342
81.130093
80.61029163
80.09558476
79.58590864
79.08120034
78.58139769
78.08643911
77.59626364
77.1108109
76.63002104
76.15383475
75.68219337
75.21503886
74.7523139
74.29396199
73.8399275
73.39015577
72.94459316
72.50318705
72.06588584
71.63263893
71.20339662
70.77811
70.35673091
69.93921174
69.52550546
69.11556553
68.70934588
68.30680092
67.90788569
67.5125558
67.1207676
66.73247821
66.3476455
65.96622813
65.58818551
65.21347765
64.84206507
64.47390876
64.10896999
63.74721035
63.38859173
63.03307637
62.68062698
62.33120688
61.98478018
61.64131177
61.30076746
60.96311397
60.62831874
60.29634985
59.96717585
59.64076555
59.31708793
58.99611209
58.67780723
58.36214278
58.04908853
57.73861474
57.43069231
57.1252928
56.82238844
56.52195201
56.22395671
55.92837598
55.63518327
55.34435205
55.05585565
54.7696674
54.48576082
54.20410974
53.92468857
53.64747244
53.37243731
53.09955987
52.82881751
52.560188
52.29364936
52.02917964
51.76675683
51.50635884
51.2479637
50.99154964
50.73709538
50.48458026
50.23398424
49.98528787
49.73847213
49.49351817
49.25040721
49.00912048
48.7696392
48.53194475
48.29601887
48.06184368
47.82940178
47.59867611
47.36964982
47.14230616
46.91662843
46.69260008
46.47020482
46.2494268
46.03025057
45.81266104
45.59664324
45.38218209
45.1692622
44.95786784
44.74798298
44.53959149
44.3326773
44.12722458
43.92321785
43.7206421
43.51948283
43.31972603
43.12135827
42.92436676
42.72873937
42.53446455
42.34153153
42.14993068
41.95965393
41.77069535
41.58305183
41.39672296
41.21170867
41.02800286
40.84558212
40.6643951
40.48436606
40.30541329
40.12743269
39.95030188
39.7741068
39.58953314
39.38676179
39.16439415
38.92100735
38.65511738
38.36508206
38.04902006
37.70478701
37.32998658
36.92204236
36.47836979
35.99640917
35.4738204
34.90844627
34.29836067
33.64186895
32.93754652
32.18413146
31.38084632
30.52716164
29.6230793
28.66940523
27.66729093
26.61931725
25.52845642
24.39937545
23.23742606
22.04983415
20.84479323
19.63267608
18.42522361
17.23681877
16.08393069
14.98659912
13.96828992
13.05803202
12.29125211
11.71346673
11.38397833
107.7094514
116.3875292
125.7004448
135.2228823
144.6097564
153.6185478
162.0988484
169.9706062
177.2024769
183.7944676
189.7655124
195.1452286
199.9686893
204.2731461
208.0959545
211.473291
214.4394554
217.026589
219.2646292
221.1813446
222.8023789
224.1513149
225.2497962
226.1177109
226.7733916
227.2337751
227.5144981
227.6299517
227.5933429
227.416794
227.1114775
226.6877488
226.1552435
225.5229251
224.7991008
223.9914344
223.1069824
222.1522569
221.1333012
220.0557548
218.924895
217.7456526
216.5226149
215.260029
213.9618186
212.6316128
211.2727824
209.8884737
208.4816314
207.0550111
205.6111826
204.1525317
202.6812641
201.1994159
199.7088682
198.2113647
196.7085271
195.201868
193.6927984
192.1826326
190.67259
189.1637982
187.6572957
186.1540374
184.6549005
183.1606916
181.6721527
180.1899672
178.7147649
177.2471255
175.7875816
174.336622
172.8946935
171.4622034
170.0395221
168.626985
167.2248944
165.8335219
164.4531095
163.0838717
161.7259971
160.37965
159.0449717
157.7220826
156.4110839
155.1120587
153.8250744
152.5501834
151.2874247
150.036825
148.7983999
147.5721541
146.3580828
145.1561719
143.9663984
142.7887311
141.6231313
140.4695527
139.3279421
138.1982402
137.0803817
135.9742959
134.8799072
133.7971356
132.7258968
131.6661031
130.6176635
129.580484
128.5544681
127.5395168
126.5355293
125.542403
124.5600336
123.5883158
122.627143
121.6764077
120.7360016
119.8058159
118.8857412
117.975668
117.0754864
116.1850864
115.3043581
114.4331917
113.5714776
112.7191066
111.8759698
111.0419586
110.216965
109.4008816
108.5936016
107.7950187
107.0050277
106.2235237
105.4504027
104.6855618
103.9288985
103.1803115
102.4397002
101.7069649
100.982007
100.2647287
99.55503306
98.85282434
98.15800766
97.47048911
96.79017579
96.11697582
95.45079829
94.79155333
94.13915213
93.49350686
92.85453074
92.22213799
91.59624387
90.97676463
90.36361755
89.75672101
89.1559944
88.56135818
87.9727339
87.39004418
86.81321273
86.24216446
85.67682539
85.11712274
84.56298499
84.01434173
83.47112377
82.93326309
82.40069277
81.87334697
81.35116089
80.83407063
80.3220131
79.81492595
79.31274739
78.81541613
78.32287136
77.83505264
77.35189995
76.87335374
76.39935499
75.92984529
75.46476703
75.00406343
74.54767878
74.09555846
73.64764905
73.20389827
72.76425505
72.32866927
71.89709174
71.46947402
71.04576822
70.62592691
70.20990305
69.79764996
69.38912136
68.98427147
68.58305512
68.18542789
67.79134624
67.40076752
67.01365001
66.62995288
66.24963598
65.8726597
65.49898481
65.12857227
64.76138316
64.39737868
64.03652022
63.67876956
63.32408911
62.97244214
62.62379299
62.27810714
61.93535122
61.59549286
61.25850041
60.9243427
60.59298868
60.26440721
59.93856698
59.61543646
59.29498414
58.97717871
58.6619894
58.34938618
58.03933999
57.73182275
57.42680725
57.12426698
56.82417577
56.52650752
56.23123592
55.93833433
55.64777577
55.35953311
55.07357928
54.7898876
54.50843211
54.22918767
53.95213015
53.67723632
53.40448373
53.1338504
52.86531471
52.5988551
52.33445001
52.07207788
51.81171719
51.55334662
51.29694516
51.04249218
50.78996744
50.53935111
50.29062357
50.04376544
49.79875751
49.55558074
49.31421634
49.0746459
48.83685141
48.60081527
48.36652027
48.13394941
47.90308588
47.67391296
47.44641406
47.22057281
46.99637313
46.77379923
46.55283556
46.33346673
46.11567724
45.89945142
45.68477333
45.47162685
45.25999579
45.04986402
44.84121562
44.63403497
44.4283069
44.22401675
44.02115026
43.81969357
43.61963352
43.42095762
43.22365397
43.0277113
42.83311939
42.63986943
42.44795406
42.25736774
42.06810621
41.88016396
41.69352924
41.50817659
41.3240604
41.14111739
40.95927577
40.77845321
40.59857298
40.41968507
40.23239378
40.02667174
39.80105545
39.55405248
39.28410531
38.98951996
38.66838649
38.3185607
37.93765338
37.52309498
37.07229622
36.58267004
36.05182534
35.47757334
34.85790751
34.19110652
33.47570538
32.7103902
31.89440145
31.0271722
30.10871127
29.13986441
28.12175457
27.05707191
25.94875058
24.80163011
23.62103687
22.41441039
21.18999796
19.95837669
18.7314744
17.5238828
16.35237134
15.23728145
14.20247306
13.27745329
12.49822284
11.91104597
11.57620483
122.1829259
129.7841527
137.9829534
146.4331385
154.8387339
162.9781347
170.7028655
177.9246072
184.5995135
190.7142259
196.2751327
201.3008449
205.8171584
209.8536654
213.4414271
216.6114275
219.3936693
221.8167522
223.9077125
225.6919391
227.1930959
228.4330861
229.432116
230.2088542
230.7806172
231.1635012
231.3724324
231.4211751
231.3223653
231.0876072
230.7276201
230.2523826
229.6712245
228.9928548
228.2253506
227.3761532
226.4521009
225.4595016
224.4042213
223.2917568
222.1272733
220.9156098
219.6612681
218.3684085
217.0408649
215.6821783
214.2956409
212.8843342
211.4511532
209.9988144
208.5298541
207.0466242
205.5512938
204.0458596
202.5321634
201.0119126
199.4866986
197.95801
196.4272398
194.8956879
193.3645614
191.834975
190.307954
188.7844388
187.2652921
185.7513064
184.2432109
182.7416783
181.2473294
179.7607366
178.2824269
176.8128844
175.352552
173.9018341
172.4610981
171.0306769
169.6108707
168.2019487
166.8041508
165.4176891
164.0427494
162.6794933
161.3280591
159.9885641
158.6611065
157.3457665
156.0426088
154.7516837
153.4730283
152.2066681
150.9526175
149.7108807
148.4814524
147.2643181
146.0594548
144.866831
143.6864075
142.5181378
141.361968
140.2178381
139.0856821
137.9654281
136.8569997
135.7603156
134.6752905
133.6018357
132.5398587
131.4892646
130.4499556
129.4218318
128.404791
127.3987296
126.4035423
125.4191228
124.4453635
123.4821559
122.5293907
121.5869581
120.654748
119.7326496
118.8205523
117.9183451
117.0259173
116.1431582
115.2699572
114.4062043
113.5517896
112.7066038
111.8705379
111.0434837
110.2253334
109.41598
108.6153172
107.8232394
107.0396418
106.2644204
105.4974719
104.7386941
103.9879855
103.2452456
102.5103748
101.7832743
101.0638465
100.3519945
99.64762266
98.95063611
98.26094101
97.57844456
96.90305494
96.23468132
95.57323399
94.9186242
94.27076421
93.62956733
92.99494784
92.36682104
91.74510322
91.12971181
90.5205652
89.91758288
89.32068542
88.72979446
88.14483275
87.56572427
86.99239416
86.42476886
85.86277607
85.30634475
84.75540513
84.20988871
83.66972818
83.13485741
82.60521138
82.08072602
81.5613381
81.04698512
80.53760504
80.03313625
79.53351749
79.03868771
78.54858615
78.06315239
77.58232637
77.1060486
76.63426031
76.16690363
75.70392176
75.24525916
74.79086159
74.34067616
73.89465131
73.45273658
73.01488251
72.58104038
72.15116202
71.7251996
71.30310559
70.88483269
70.47033387
70.05956258
69.65247283
69.24901945
68.84915825
68.45284608
68.06004087
67.67070156
67.28478785
66.90226
66.52307856
66.14720416
65.77459734
65.40521858
65.03902842
64.67598768
64.31605787
63.95920148
63.60538227
63.25456542
62.90671754
62.56180641
62.21980067
61.88066937
61.54438158
61.21090599
60.88021083
60.55226387
60.22703261
59.90448473
59.58458843
59.26731288
58.95262844
58.64050678
58.33092072
58.023844
57.71925082
57.41711538
57.11741154
56.82011255
56.52519106
56.23261928
55.94236926
55.65441333
55.36872453
55.08527684
54.80404542
54.52500661
54.24813773
53.9734169
53.70082273
53.43033403
53.1619296
52.89558813
52.63128819
52.3690083
52.10872706
51.85042326
51.59407595
51.33966454
51.08716877
50.83656874
50.58784483
50.34097777
50.0959486
49.85273877
49.61133012
49.37170489
49.13384571
48.89773547
48.66335727
48.43069433
48.19972999
47.97044772
47.74283121
47.51686433
47.29253116
47.06981588
46.84870267
46.62917556
46.41121844
46.19481502
45.97994901
45.76660422
45.55476464
45.34441448
45.13553834
44.92812138
44.72214916
44.51760748
44.31448262
44.11276171
43.91243249
43.71348317
43.51590284
43.31968183
43.12481147
42.93128398
42.73909185
42.54822541
42.35866913
42.17039707
41.9833691
41.7975326
41.61282754
41.42918876
41.24656094
41.06498356
40.87494447
40.66624318
40.43735567
40.18672338
39.91272179
39.61360436
39.28742638
38.93203473
38.54504393
38.12388625
37.66597063
37.16868237
36.62958297
36.04645445
35.41721179
34.74010611
34.01363462
33.23642787
32.40774607
31.52698377
30.59415494
29.61014769
28.57605301
27.4946734
26.36890229
25.20375369
24.00452704
22.77887654
21.53510233
20.28398644
19.03764295
17.81087278
16.62074517
15.48790357
14.43660164
13.49682488
12.70514771
12.10858216
11.76838969
136.3793788
143.0034962
150.1910016
157.6567666
165.1467422
172.4607105
179.456075
186.0408928
192.162866
197.7983854
202.9435432
207.6075164
211.8078866
215.5672686
218.9108409
221.864629
224.4544697
226.7054925
228.6418667
230.286608
231.6613874
232.7864072
233.6804128
234.3608303
234.843933
235.1449428
235.2780372
235.2563181
235.0918232
234.7956216
234.3779698
233.848459
233.216098
232.4893192
231.6759465
230.7831784
229.8176215
228.7853729
227.6921183
226.5432074
225.3436869
224.0982933
222.8114315
221.487164
220.1292267
218.7410681
217.3258992
215.8867351
214.4264182
212.9476225
211.4528455
209.9444
208.4244134
206.8948397
205.3574786
203.8139999
202.2659633
200.7148321
199.1619795
197.608689
196.0561529
194.5054709
192.9576528
191.4136228
189.8742277
188.3402447
186.8123896
185.2913232
183.7776564
182.2719536
180.7747351
179.2864794
177.8076248
176.3385713
174.879683
173.4312896
171.9936884
170.5671458
169.1518989
167.748157
166.3561029
164.9758949
163.6076678
162.2515356
160.9075929
159.5759168
158.2565691
156.9495973
155.6550366
154.3729108
153.103233
151.8460065
150.6012254
149.3688749
148.1489312
146.9413627
145.7461296
144.5631847
143.3924736
142.2339353
141.0875027
139.9531032
138.8306589
137.7200874
136.6213023
135.5342134
134.4587272
133.3947474
132.342175
131.3009088
130.2708455
129.2518804
128.2439071
127.2468181
126.2605048
125.2848575
124.3197661
123.3651198
122.4208073
121.4867171
120.5627374
119.6487564
118.7446623
117.8503436
116.9656888
116.0905869
115.2249272
114.3685994
113.5214937
112.6835008
111.8545123
111.0344201
110.2231171
109.4204967
108.6264533
107.840882
107.0636786
106.2947399
105.5339637
104.7812485
104.0364937
103.2995997
102.570468
101.8490008
101.1351014
100.4286741
99.72962422
99.03785792
98.35328248
97.67580616
97.00533832
96.34178929
95.68507041
95.03509403
94.39177348
93.75502308
93.12475818
92.5008952
91.8833516
91.27204586
90.66689758
90.06782741
89.47475717
88.8876099
88.30630991
87.7307828
87.16095556
86.59675652
86.03811532
85.48496301
84.93723191
84.39485559
83.85776885
83.32590744
82.799208
82.27760783
81.76104467
81.24945656
80.74278175
80.24095859
79.74392553
79.25162125
78.76398468
78.2809552
77.80247292
77.32847885
76.85891515
76.39372536
75.93285449
75.47624905
75.02385704
74.57562767
74.13151122
73.69145873
73.25542171
72.82335196
72.39520142
71.97092216
71.55046642
71.13378685
70.72083666
70.31156994
69.90594189
69.50390887
69.10542846
68.7104594
68.31896123
67.93089404
67.54621818
67.16489388
66.78688114
66.41213971
66.04062926
65.67230969
65.30714162
64.94508679
64.58610843
64.23017143
63.87724238
63.52728919
63.1802807
62.83618617
62.49497467
62.15661468
61.82107397
61.48831956
61.15831809
60.83103627
60.50644143
60.18450198
59.86518781
59.54847035
59.23432245
58.92271801
58.61363143
58.3070371
58.00290887
57.7012198
57.40194211
57.10504737
56.8105069
56.51829221
56.22837555
55.94073026
55.65533097
55.3721537
55.09117565
54.81237495
54.53573035
54.26122082
53.98882531
53.71852256
53.45029103
53.18410897
52.91995454
52.65780596
52.39764166
52.13944043
51.88318148
51.62884446
51.37640949
51.12585707
50.8771681
50.63032389
50.38530614
50.14209694
49.90067876
49.66103437
49.42314673
49.18699897
48.95257429
48.71985598
48.48882747
48.25947232
48.03177422
47.80571701
47.58128455
47.35846064
47.13722896
46.91757306
46.6994765
46.48292301
46.26789654
46.05438113
45.84236106
45.63182123
45.42274707
45.21512418
45.0089383
44.80417597
44.60082451
44.3988716
44.19830553
43.99911576
43.80129246
43.60482605
43.40970664
43.21592176
43.02345322
42.83227472
42.64235006
42.45363499
42.2660812
42.07963913
41.89426803
41.71000393
41.51719589
41.30548525
41.07329899
40.81901543
40.54094591
40.23729921
39.9060946
39.54516315
39.15211567
38.72437848
38.25936016
37.75441814
37.20706936
36.61506906
35.97625581
35.28885234
34.55132074
33.76223284
32.92086999
32.02658756
31.07940283
30.08024858
29.03018086
27.93211708
26.78890772
25.60574289
24.38789385
23.14323026
21.88010437
20.60950362
19.34372783
18.09778743
16.88905106
15.73846453
14.67067479
13.71614602
12.91202602
12.30607465
11.96053224
252.6330375
410.718285
729.0854217
1202.273383
1758.721697
2318.413235
2836.154551
3291.829264
3677.047845
3989.840601
4255.065935
4534.599038
4875.630416
5294.074375
256.6464273
416.6041078
737.5715037
1212.542482
1769.330584
2328.555139
2845.294855
3298.92841
3680.173936
3986.370167
4241.716546
4503.976714
4808.88213
5150.028632
260.6451969
422.4425333
745.9186376
1222.502319
1779.351342
2337.605336
2852.430604
3302.511946
3677.614023
3974.661925
4217.65466
4460.666496
4731.351145
5015.615454
264.6291778
428.2332715
754.1268226
1232.154108
1788.78698
2345.572914
2857.600586
3302.734224
3669.863436
3955.952837
4185.350492
4409.12308
4649.780024
4892.235027
268.5982042
433.9760483
762.1961181
1241.499281
1797.641448
2352.470904
2860.857567
3299.786938
3657.477628
3931.472399
4146.943888
4352.556648
4567.674277
4778.771375
272.5521135
439.6706053
770.126642
1250.539476
1805.919608
2358.316067
2862.26632
3293.887796
3641.029771
3902.35116
4104.166906
4293.162176
4486.764295
4673.673511
276.4907462
445.3166995
777.9185695
1259.276537
1813.627208
2363.128594
2861.901499
3285.27034
3621.079566
3869.576959
4058.36327
4232.39688
4407.845826
4575.544645
280.4139461
450.9141032
785.5721322
1267.712507
1820.770847
2366.931792
2859.845593
3274.175136
3598.152611
3833.984557
4010.549692
4171.210873
4331.233434
4483.255462
284.3215597
456.4626042
793.0876165
1275.849621
1827.35793
2369.751749
2856.186966
3260.842422
3572.728665
3796.263243
3961.483025
4110.214829
4257.000905
4395.923967
288.213437
461.9620048
800.4653629
1283.690306
1833.396634
2371.616989
2851.017957
3245.506416
3545.235924
3756.972089
3911.721236
4049.797772
4185.107649
4312.8639
292.089431
467.4121226
807.7057644
1291.237169
1838.895853
2372.558098
2844.433113
3228.390988
3516.050291
3716.560601
3861.674575
3990.204112
4115.461741
4233.537839
295.9493975
472.8127893
814.8092657
1298.492999
1843.86515
2372.60737
2836.527676
3209.706931
3485.498437
3675.388484
3811.643706
3931.583882
4047.95229
4157.520487
299.7931958
478.1638516
821.7763623
1305.460753
1848.3147
2371.798457
2827.396364
3189.650545
3453.861935
3633.741994
3761.848354
3874.02626
3982.465971
4084.470648
303.620688
483.4651699
828.6075991
1312.143556
1852.255236
2370.166062
2817.13238
3168.402852
3421.38166
3591.848541
3712.449438
3817.580929
3918.894321
4014.110938
307.4317395
488.7166192
835.3035692
1318.544688
1855.697993
2367.745636
2805.826574
3146.129382
3388.262626
3549.889073
3663.565107
3762.271644
3857.136511
3946.213108
311.2262187
493.918088
841.8649134
1324.667584
1858.654652
2364.573102
2793.566774
3122.980511
3354.678953
3508.007643
3615.28168
3708.105333
3797.100445
3880.587007
315.0039968
499.0694788
848.292318
1330.515817
1861.137284
2360.684598
2780.437281
3099.092164
3320.77835
3466.318879
3567.661611
3655.078175
3738.702889
3817.072212
318.7649485
504.1707075
854.5865144
1336.093097
1863.158296
2356.116239
2766.51852
3074.586682
3286.685935
3424.9141
3520.749707
3603.17941
3681.868746
3755.531814
322.5089513
509.2217036
860.7482777
1341.403261
1864.730375
2350.903919
2751.886819
3049.573798
3252.50757
3383.866184
3474.577775
3552.39372
3626.529988
3695.847798
326.2358858
514.2224094
866.7784249
1346.450262
1865.866438
2345.083124
2736.614288
3024.151663
3218.332808
3343.233258
3429.167797
3502.702893
3572.624748
3637.917446
329.9456355
519.1727807
872.6778143
1351.238162
1866.57958
2338.688782
2720.768781
2998.407877
3184.237412
3303.061491
3384.534146
3454.087052
3520.096612
3581.650433
333.6380872
524.0727857
878.4473436
1355.771125
1866.883028
2331.755126
2704.413924
2972.420474
3150.285473
3263.387371
3340.685298
3406.525462
3468.893954
3526.966506
337.3131304
528.9224056
884.0879489
1360.053404
1866.790097
2324.315585
2687.609194
2946.258854
3116.531157
3224.239592
3297.625207
3359.996952
3418.969255
3473.793691
340.970658
533.7216339
889.6006029
1364.089338
1866.314145
2316.40269
2670.410038
2919.984644
3083.02019
3185.640543
3255.354327
3314.480119
3370.278491
3422.066935
344.6105655
538.4704762
894.986314
1367.883338
1865.468535
2308.048004
2652.868019
2893.652505
3049.791105
3147.607425
3213.870363
3269.953498
3322.780651
3371.727033
348.2327516
543.1689503
900.2461243
1371.439881
1864.266601
2299.28206
2635.030983
2867.310866
3016.876295
3110.153106
3173.168821
3226.39572
3276.437351
3322.719707
351.837118
547.8170859
905.3811088
1374.763505
1862.721608
2290.13432
2616.943233
2841.002579
2984.302894
3073.28682
3133.24347
3183.785656
3231.212482
3274.994818
355.4235694
552.4149242
910.3923733
1377.858794
1860.846727
2280.633143
2598.645721
2814.765513
2952.093529
3037.014787
3094.086703
3142.102472
3187.071907
3228.50574
358.9920132
556.9625179
915.2810535
1380.730376
1858.655003
2270.805767
2580.176232
2788.633077
2920.266949
3001.340722
3055.6898
3101.325636
3143.983204
3183.208882
362.5423599
561.4599308
920.0483132
1383.382912
1856.159332
2260.678296
2561.569575
2762.634696
2888.838564
2966.266237
3018.043114
3061.434899
3101.915477
3139.063315
366.0745231
565.9072378
924.6953431
1385.821091
1853.372432
2250.275704
2542.85777
2736.796233
2857.820881
2931.791158
2981.136237
3022.410298
3060.839197
3096.030447
369.5884191
570.3045246
929.2233591
1388.049621
1850.306831
2239.621838
2524.070228
2711.14037
2827.223885
2897.913793
2944.958151
2984.23218
3020.726069
3054.073735
373.0839671
574.6518874
933.6336011
1390.073224
1846.974841
2228.739433
2505.233924
2685.686945
2797.055365
2864.631165
2909.497371
2946.881214
2981.548905
3013.158445
376.5610893
578.9494327
937.9273316
1391.896626
1843.388543
2217.650125
2486.373567
2660.453249
2767.321199
2831.939216
2874.742054
2910.338389
2943.281511
2973.251466
380.0197106
583.197277
942.1058339
1393.524554
1839.559777
2206.374478
2467.511751
2635.454294
2738.025597
2799.83297
2840.680071
2874.585002
2905.898596
2934.321159
383.459759
587.395547
946.1704112
1394.96173
1835.500124
2194.932005
2448.669111
2610.703047
2709.17131
2768.306659
2807.299066
2839.602642
2869.375707
2896.337228
386.881165
591.5443788
950.1223849
1396.212863
1831.220902
2183.341203
2429.864457
2586.210645
2680.759815
2737.353845
2774.586508
2805.373211
2833.68918
2859.270622
390.2838623
595.643918
953.9630934
1397.282644
1826.73315
2171.619573
2411.114914
2561.986579
2652.791471
2706.967519
2742.529756
2771.878931
2798.816101
2823.09343
393.667787
599.6943192
957.6938907
1398.175742
1822.047628
2159.783666
2392.436044
2538.038871
2625.265662
2677.140198
2711.116107
2739.102353
2764.734263
2787.778801
397.0328782
603.6957464
961.3161451
1398.896799
1817.174807
2147.849102
2373.84196
2514.374215
2598.180916
2647.864005
2680.332837
2707.02635
2731.422114
2753.300863
400.3790778
607.6483718
964.8312377
1399.450424
1812.124867
2135.830618
2355.345437
2490.998119
2571.535013
2619.130734
2650.167226
2675.634106
2698.858723
2719.634663
403.7063304
611.5523766
968.2405615
1399.84119
1806.907695
2123.74209
2336.958012
2467.91502
2545.325077
2590.931914
2620.606588
2644.909114
2667.023753
2686.756122
407.014583
615.4079499
971.5455199
1400.073629
1801.53288
2111.596579
2318.690074
2445.128396
2519.547669
2563.25886
2591.638299
2614.835188
2635.897454
2654.641999
410.3037858
619.215289
974.7475255
1400.152231
1796.009715
2099.406356
2300.550962
2422.640866
2494.198861
2536.102723
2563.249823
2585.39647
2605.460647
2623.269852
413.5738914
622.9745991
977.847999
1400.081436
1790.347197
2087.182943
2282.549034
2400.454279
2469.274297
2509.454527
2535.428738
2556.577434
2575.694701
2592.617992
416.8248549
626.6860927
980.848368
1399.865634
1784.554028
2074.937145
2264.691752
2378.56979
2444.769255
2483.305201
2508.162746
2528.362878
2546.581508
2562.665446
420.0566343
630.3499899
983.7500659
1399.509161
1778.638618
2062.679081
2246.985747
2356.98793
2420.678692
2457.645612
2481.439694
2500.737922
2518.103464
2533.391924
423.2691901
633.966518
986.5545306
1399.016296
1772.609084
2050.418219
2229.436884
2335.708671
2396.997298
2432.466598
2455.247583
2473.688006
2490.243458
2504.777803
426.4624853
637.5359108
989.2632037
1398.391259
1766.47326
2038.163408
2212.050322
2314.731486
2373.719536
2407.758993
2429.574583
2447.198891
2462.984861
2476.804103
429.6364856
641.0584093
991.8775293
1397.63821
1760.238695
2025.922905
2194.830571
2294.055402
2350.839685
2383.513649
2404.409044
2421.256665
2436.31152
2449.452465
432.791159
644.5342605
994.3989531
1396.761243
1753.912659
2013.70441
2177.781544
2273.679047
2328.351872
2359.721455
2379.739496
2395.847735
2410.207738
2422.705125
435.9264762
647.9637179
996.8289212
1395.76439
1747.50215
2001.515088
2160.906602
2253.600696
2306.250096
2336.37335
2355.55466
2370.95883
2384.65826
2396.544885
439.0424103
651.3470409
999.1688796
1394.651615
1741.013896
1989.361605
2144.208601
2233.81831
2284.528258
2313.460342
2331.843456
2346.576996
2359.648267
2370.955098
442.1389368
654.6844948
1001.420273
1393.426812
1734.454364
1977.250146
2127.68993
2214.329568
2263.180182
2290.973526
2308.595008
2322.689593
2335.163358
2345.91965
445.2160337
657.9763502
1003.584543
1392.093808
1727.82976
1965.186447
2111.352552
2195.131905
2242.199641
2268.904097
2285.798651
2299.284295
2311.18955
2321.422953
448.2736813
661.2228835
1005.66313
1390.656358
1721.146043
1953.175816
2095.198037
2176.22254
2221.580376
2247.24336
2263.443926
2276.349081
2287.713264
2297.449913
451.3118625
664.4243759
1007.657469
1389.118148
1714.408925
1941.223157
2079.227596
2157.598503
2201.316107
2225.982732
2241.52058
2253.87223
2264.721312
2273.985921