/*--------------------------------*- C++ -*----------------------------------*\
  =========                 |
  \\      /  F ield         | OpenFOAM: The Open Source CFD Toolbox
   \\    /   O peration     | Website:  https://openfoam.org
    \\  /    A nd           | Version:  7
     \\/     M anipulation  |
\*---------------------------------------------------------------------------*/
FoamFile
{
    version     2.0;
    format      ascii;
    class       volScalarField;
    location    "1e-12";
    object      ne;
}
// * * * * * * * * * * * * * * * * * * * * * * * * * * * * * * * * * * * * * //

dimensions      [0 -3 0 0 0 0 0];

internalField   nonuniform List<scalar> 
15066
(
1.01257e+13
1.01257e+13
1.01257e+13
1.01258e+13
1.01259e+13
1.01261e+13
1.01262e+13
1.01264e+13
1.01266e+13
1.01269e+13
1.01271e+13
1.01274e+13
1.01278e+13
1.01281e+13
1.01285e+13
1.01289e+13
1.01294e+13
1.01299e+13
1.01304e+13
1.01309e+13
1.01315e+13
1.01321e+13
1.01327e+13
1.01334e+13
1.01341e+13
1.01348e+13
1.01356e+13
1.01364e+13
1.01373e+13
1.01382e+13
1.01391e+13
1.01401e+13
1.01411e+13
1.01421e+13
1.01432e+13
1.01444e+13
1.01456e+13
1.01468e+13
1.01481e+13
1.01495e+13
1.01509e+13
1.01523e+13
1.01538e+13
1.01554e+13
1.01571e+13
1.01588e+13
1.01606e+13
1.01624e+13
1.01644e+13
1.01664e+13
1.01685e+13
1.01706e+13
1.01729e+13
1.01753e+13
1.01777e+13
1.01803e+13
1.0183e+13
1.01858e+13
1.01888e+13
1.01918e+13
1.0195e+13
1.01984e+13
1.02019e+13
1.02056e+13
1.02095e+13
1.02135e+13
1.02178e+13
1.02223e+13
1.0227e+13
1.0232e+13
1.02373e+13
1.02428e+13
1.02487e+13
1.02549e+13
1.02615e+13
1.02685e+13
1.02759e+13
1.02838e+13
1.02922e+13
1.03011e+13
1.03106e+13
1.03207e+13
1.03315e+13
1.03429e+13
1.03551e+13
1.03679e+13
1.03814e+13
1.03955e+13
1.04102e+13
1.04255e+13
1.04413e+13
1.04575e+13
1.04738e+13
1.04902e+13
1.05065e+13
1.05225e+13
1.05373e+13
1.05488e+13
1.05534e+13
1.0544e+13
1.01255e+13
1.01255e+13
1.01256e+13
1.01256e+13
1.01258e+13
1.01259e+13
1.01261e+13
1.01262e+13
1.01265e+13
1.01267e+13
1.0127e+13
1.01273e+13
1.01276e+13
1.0128e+13
1.01283e+13
1.01288e+13
1.01292e+13
1.01297e+13
1.01302e+13
1.01307e+13
1.01313e+13
1.01319e+13
1.01325e+13
1.01332e+13
1.01339e+13
1.01346e+13
1.01354e+13
1.01362e+13
1.01371e+13
1.0138e+13
1.01389e+13
1.01399e+13
1.01409e+13
1.01419e+13
1.0143e+13
1.01442e+13
1.01454e+13
1.01466e+13
1.01479e+13
1.01492e+13
1.01506e+13
1.01521e+13
1.01536e+13
1.01552e+13
1.01568e+13
1.01585e+13
1.01603e+13
1.01621e+13
1.01641e+13
1.01661e+13
1.01681e+13
1.01703e+13
1.01726e+13
1.01749e+13
1.01774e+13
1.018e+13
1.01826e+13
1.01854e+13
1.01883e+13
1.01914e+13
1.01946e+13
1.01979e+13
1.02014e+13
1.0205e+13
1.02089e+13
1.02129e+13
1.02171e+13
1.02216e+13
1.02263e+13
1.02312e+13
1.02364e+13
1.02418e+13
1.02476e+13
1.02538e+13
1.02602e+13
1.02671e+13
1.02744e+13
1.02821e+13
1.02902e+13
1.02989e+13
1.03082e+13
1.0318e+13
1.03283e+13
1.03393e+13
1.0351e+13
1.03632e+13
1.03759e+13
1.03893e+13
1.04031e+13
1.04173e+13
1.0432e+13
1.04469e+13
1.04618e+13
1.04767e+13
1.04912e+13
1.05051e+13
1.05176e+13
1.05267e+13
1.05307e+13
1.05314e+13
1.01253e+13
1.01254e+13
1.01254e+13
1.01255e+13
1.01256e+13
1.01257e+13
1.01259e+13
1.01261e+13
1.01263e+13
1.01265e+13
1.01268e+13
1.01271e+13
1.01274e+13
1.01278e+13
1.01282e+13
1.01286e+13
1.0129e+13
1.01295e+13
1.013e+13
1.01306e+13
1.01311e+13
1.01317e+13
1.01324e+13
1.0133e+13
1.01337e+13
1.01345e+13
1.01352e+13
1.0136e+13
1.01369e+13
1.01378e+13
1.01387e+13
1.01397e+13
1.01407e+13
1.01417e+13
1.01428e+13
1.0144e+13
1.01451e+13
1.01464e+13
1.01477e+13
1.0149e+13
1.01504e+13
1.01519e+13
1.01534e+13
1.01549e+13
1.01566e+13
1.01583e+13
1.016e+13
1.01619e+13
1.01638e+13
1.01658e+13
1.01679e+13
1.017e+13
1.01723e+13
1.01746e+13
1.01771e+13
1.01796e+13
1.01823e+13
1.0185e+13
1.01879e+13
1.0191e+13
1.01941e+13
1.01974e+13
1.02009e+13
1.02045e+13
1.02083e+13
1.02123e+13
1.02165e+13
1.02209e+13
1.02256e+13
1.02304e+13
1.02356e+13
1.0241e+13
1.02467e+13
1.02527e+13
1.02591e+13
1.02659e+13
1.0273e+13
1.02806e+13
1.02886e+13
1.02971e+13
1.03061e+13
1.03157e+13
1.03258e+13
1.03364e+13
1.03477e+13
1.03595e+13
1.03717e+13
1.03845e+13
1.03977e+13
1.04113e+13
1.04252e+13
1.04393e+13
1.04534e+13
1.04672e+13
1.04807e+13
1.04934e+13
1.05049e+13
1.05137e+13
1.05179e+13
1.05185e+13
1.01251e+13
1.01252e+13
1.01252e+13
1.01253e+13
1.01254e+13
1.01255e+13
1.01257e+13
1.01259e+13
1.01261e+13
1.01263e+13
1.01266e+13
1.01269e+13
1.01272e+13
1.01276e+13
1.0128e+13
1.01284e+13
1.01288e+13
1.01293e+13
1.01298e+13
1.01303e+13
1.01309e+13
1.01315e+13
1.01321e+13
1.01328e+13
1.01335e+13
1.01342e+13
1.0135e+13
1.01358e+13
1.01367e+13
1.01375e+13
1.01385e+13
1.01394e+13
1.01404e+13
1.01415e+13
1.01426e+13
1.01437e+13
1.01449e+13
1.01461e+13
1.01474e+13
1.01487e+13
1.01501e+13
1.01516e+13
1.01531e+13
1.01546e+13
1.01563e+13
1.0158e+13
1.01597e+13
1.01616e+13
1.01635e+13
1.01654e+13
1.01675e+13
1.01696e+13
1.01719e+13
1.01742e+13
1.01766e+13
1.01792e+13
1.01818e+13
1.01846e+13
1.01874e+13
1.01904e+13
1.01936e+13
1.01969e+13
1.02003e+13
1.02039e+13
1.02077e+13
1.02116e+13
1.02158e+13
1.02201e+13
1.02247e+13
1.02295e+13
1.02346e+13
1.02399e+13
1.02455e+13
1.02514e+13
1.02577e+13
1.02643e+13
1.02713e+13
1.02787e+13
1.02865e+13
1.02948e+13
1.03036e+13
1.03128e+13
1.03226e+13
1.03329e+13
1.03436e+13
1.03549e+13
1.03666e+13
1.03787e+13
1.03912e+13
1.0404e+13
1.0417e+13
1.04301e+13
1.04431e+13
1.04558e+13
1.04679e+13
1.04792e+13
1.04892e+13
1.04971e+13
1.05021e+13
1.05035e+13
1.01249e+13
1.0125e+13
1.0125e+13
1.01251e+13
1.01252e+13
1.01253e+13
1.01255e+13
1.01257e+13
1.01259e+13
1.01261e+13
1.01264e+13
1.01267e+13
1.0127e+13
1.01274e+13
1.01278e+13
1.01282e+13
1.01286e+13
1.01291e+13
1.01296e+13
1.01301e+13
1.01307e+13
1.01313e+13
1.01319e+13
1.01326e+13
1.01333e+13
1.0134e+13
1.01348e+13
1.01356e+13
1.01364e+13
1.01373e+13
1.01382e+13
1.01392e+13
1.01402e+13
1.01412e+13
1.01423e+13
1.01434e+13
1.01446e+13
1.01458e+13
1.01471e+13
1.01484e+13
1.01498e+13
1.01513e+13
1.01528e+13
1.01543e+13
1.01559e+13
1.01576e+13
1.01594e+13
1.01612e+13
1.01631e+13
1.0165e+13
1.01671e+13
1.01692e+13
1.01714e+13
1.01738e+13
1.01762e+13
1.01787e+13
1.01813e+13
1.0184e+13
1.01869e+13
1.01899e+13
1.0193e+13
1.01962e+13
1.01996e+13
1.02032e+13
1.02069e+13
1.02108e+13
1.02149e+13
1.02192e+13
1.02237e+13
1.02284e+13
1.02334e+13
1.02386e+13
1.02442e+13
1.025e+13
1.02561e+13
1.02626e+13
1.02694e+13
1.02766e+13
1.02842e+13
1.02922e+13
1.03007e+13
1.03096e+13
1.0319e+13
1.03289e+13
1.03392e+13
1.03499e+13
1.0361e+13
1.03725e+13
1.03842e+13
1.03962e+13
1.04083e+13
1.04204e+13
1.04324e+13
1.04439e+13
1.04549e+13
1.04649e+13
1.04737e+13
1.04808e+13
1.04855e+13
1.04873e+13
1.01247e+13
1.01247e+13
1.01248e+13
1.01249e+13
1.0125e+13
1.01251e+13
1.01253e+13
1.01254e+13
1.01257e+13
1.01259e+13
1.01262e+13
1.01265e+13
1.01268e+13
1.01271e+13
1.01275e+13
1.01279e+13
1.01284e+13
1.01288e+13
1.01293e+13
1.01299e+13
1.01304e+13
1.0131e+13
1.01316e+13
1.01323e+13
1.0133e+13
1.01337e+13
1.01345e+13
1.01353e+13
1.01361e+13
1.0137e+13
1.01379e+13
1.01389e+13
1.01399e+13
1.01409e+13
1.0142e+13
1.01431e+13
1.01443e+13
1.01455e+13
1.01468e+13
1.01481e+13
1.01495e+13
1.01509e+13
1.01524e+13
1.01539e+13
1.01555e+13
1.01572e+13
1.0159e+13
1.01608e+13
1.01626e+13
1.01646e+13
1.01666e+13
1.01687e+13
1.01709e+13
1.01732e+13
1.01756e+13
1.01781e+13
1.01807e+13
1.01834e+13
1.01862e+13
1.01892e+13
1.01923e+13
1.01955e+13
1.01988e+13
1.02023e+13
1.0206e+13
1.02099e+13
1.02139e+13
1.02181e+13
1.02225e+13
1.02272e+13
1.02321e+13
1.02372e+13
1.02426e+13
1.02483e+13
1.02543e+13
1.02606e+13
1.02672e+13
1.02742e+13
1.02816e+13
1.02894e+13
1.02975e+13
1.03061e+13
1.03151e+13
1.03245e+13
1.03343e+13
1.03445e+13
1.0355e+13
1.03658e+13
1.03768e+13
1.0388e+13
1.03992e+13
1.04103e+13
1.04212e+13
1.04317e+13
1.04416e+13
1.04505e+13
1.04583e+13
1.04646e+13
1.0469e+13
1.04712e+13
1.01244e+13
1.01245e+13
1.01245e+13
1.01246e+13
1.01247e+13
1.01248e+13
1.0125e+13
1.01252e+13
1.01254e+13
1.01256e+13
1.01259e+13
1.01262e+13
1.01265e+13
1.01269e+13
1.01272e+13
1.01276e+13
1.01281e+13
1.01286e+13
1.01291e+13
1.01296e+13
1.01301e+13
1.01307e+13
1.01314e+13
1.0132e+13
1.01327e+13
1.01334e+13
1.01342e+13
1.0135e+13
1.01358e+13
1.01367e+13
1.01376e+13
1.01385e+13
1.01395e+13
1.01406e+13
1.01416e+13
1.01428e+13
1.01439e+13
1.01451e+13
1.01464e+13
1.01477e+13
1.01491e+13
1.01505e+13
1.0152e+13
1.01535e+13
1.01551e+13
1.01568e+13
1.01585e+13
1.01603e+13
1.01622e+13
1.01641e+13
1.01661e+13
1.01682e+13
1.01704e+13
1.01727e+13
1.0175e+13
1.01775e+13
1.01801e+13
1.01827e+13
1.01855e+13
1.01884e+13
1.01915e+13
1.01946e+13
1.01979e+13
1.02014e+13
1.0205e+13
1.02088e+13
1.02128e+13
1.02169e+13
1.02213e+13
1.02258e+13
1.02306e+13
1.02356e+13
1.02409e+13
1.02465e+13
1.02523e+13
1.02584e+13
1.02649e+13
1.02716e+13
1.02788e+13
1.02862e+13
1.02941e+13
1.03023e+13
1.03109e+13
1.03199e+13
1.03292e+13
1.03388e+13
1.03487e+13
1.03588e+13
1.0369e+13
1.03794e+13
1.03898e+13
1.04e+13
1.04099e+13
1.04194e+13
1.04283e+13
1.04363e+13
1.04432e+13
1.04487e+13
1.04528e+13
1.04551e+13
1.01241e+13
1.01242e+13
1.01242e+13
1.01243e+13
1.01244e+13
1.01245e+13
1.01247e+13
1.01249e+13
1.01251e+13
1.01253e+13
1.01256e+13
1.01259e+13
1.01262e+13
1.01266e+13
1.01269e+13
1.01273e+13
1.01278e+13
1.01282e+13
1.01287e+13
1.01293e+13
1.01298e+13
1.01304e+13
1.0131e+13
1.01317e+13
1.01324e+13
1.01331e+13
1.01339e+13
1.01346e+13
1.01355e+13
1.01363e+13
1.01372e+13
1.01382e+13
1.01392e+13
1.01402e+13
1.01413e+13
1.01424e+13
1.01435e+13
1.01447e+13
1.0146e+13
1.01473e+13
1.01487e+13
1.01501e+13
1.01515e+13
1.01531e+13
1.01546e+13
1.01563e+13
1.0158e+13
1.01598e+13
1.01616e+13
1.01635e+13
1.01655e+13
1.01676e+13
1.01698e+13
1.0172e+13
1.01744e+13
1.01768e+13
1.01793e+13
1.0182e+13
1.01847e+13
1.01876e+13
1.01906e+13
1.01937e+13
1.0197e+13
1.02004e+13
1.02039e+13
1.02077e+13
1.02116e+13
1.02156e+13
1.02199e+13
1.02244e+13
1.0229e+13
1.02339e+13
1.02391e+13
1.02445e+13
1.02501e+13
1.02561e+13
1.02623e+13
1.02689e+13
1.02757e+13
1.02829e+13
1.02904e+13
1.02983e+13
1.03065e+13
1.0315e+13
1.03238e+13
1.03328e+13
1.03421e+13
1.03515e+13
1.03611e+13
1.03707e+13
1.03802e+13
1.03896e+13
1.03986e+13
1.04072e+13
1.04152e+13
1.04224e+13
1.04286e+13
1.04335e+13
1.04372e+13
1.04394e+13
1.01238e+13
1.01239e+13
1.01239e+13
1.0124e+13
1.01241e+13
1.01242e+13
1.01244e+13
1.01246e+13
1.01248e+13
1.0125e+13
1.01253e+13
1.01256e+13
1.01259e+13
1.01262e+13
1.01266e+13
1.0127e+13
1.01275e+13
1.01279e+13
1.01284e+13
1.01289e+13
1.01295e+13
1.01301e+13
1.01307e+13
1.01313e+13
1.0132e+13
1.01327e+13
1.01335e+13
1.01343e+13
1.01351e+13
1.0136e+13
1.01369e+13
1.01378e+13
1.01388e+13
1.01398e+13
1.01409e+13
1.0142e+13
1.01431e+13
1.01443e+13
1.01456e+13
1.01468e+13
1.01482e+13
1.01496e+13
1.0151e+13
1.01526e+13
1.01541e+13
1.01558e+13
1.01574e+13
1.01592e+13
1.0161e+13
1.01629e+13
1.01649e+13
1.0167e+13
1.01691e+13
1.01713e+13
1.01736e+13
1.0176e+13
1.01786e+13
1.01812e+13
1.01839e+13
1.01867e+13
1.01897e+13
1.01927e+13
1.01959e+13
1.01993e+13
1.02028e+13
1.02064e+13
1.02102e+13
1.02142e+13
1.02184e+13
1.02228e+13
1.02273e+13
1.02321e+13
1.02371e+13
1.02423e+13
1.02478e+13
1.02536e+13
1.02596e+13
1.02659e+13
1.02725e+13
1.02794e+13
1.02866e+13
1.0294e+13
1.03018e+13
1.03099e+13
1.03182e+13
1.03267e+13
1.03354e+13
1.03442e+13
1.0353e+13
1.03619e+13
1.03707e+13
1.03792e+13
1.03875e+13
1.03952e+13
1.04024e+13
1.04089e+13
1.04145e+13
1.0419e+13
1.04223e+13
1.04244e+13
1.01235e+13
1.01235e+13
1.01236e+13
1.01237e+13
1.01238e+13
1.01239e+13
1.0124e+13
1.01242e+13
1.01244e+13
1.01247e+13
1.01249e+13
1.01252e+13
1.01255e+13
1.01259e+13
1.01263e+13
1.01267e+13
1.01271e+13
1.01276e+13
1.0128e+13
1.01286e+13
1.01291e+13
1.01297e+13
1.01303e+13
1.0131e+13
1.01316e+13
1.01324e+13
1.01331e+13
1.01339e+13
1.01347e+13
1.01356e+13
1.01364e+13
1.01374e+13
1.01383e+13
1.01394e+13
1.01404e+13
1.01415e+13
1.01426e+13
1.01438e+13
1.01451e+13
1.01464e+13
1.01477e+13
1.01491e+13
1.01505e+13
1.0152e+13
1.01536e+13
1.01552e+13
1.01569e+13
1.01586e+13
1.01604e+13
1.01623e+13
1.01642e+13
1.01663e+13
1.01684e+13
1.01706e+13
1.01729e+13
1.01752e+13
1.01777e+13
1.01803e+13
1.01829e+13
1.01857e+13
1.01886e+13
1.01917e+13
1.01948e+13
1.01981e+13
1.02015e+13
1.02051e+13
1.02088e+13
1.02127e+13
1.02168e+13
1.0221e+13
1.02255e+13
1.02301e+13
1.0235e+13
1.02401e+13
1.02454e+13
1.02509e+13
1.02567e+13
1.02628e+13
1.02691e+13
1.02757e+13
1.02826e+13
1.02897e+13
1.0297e+13
1.03047e+13
1.03125e+13
1.03204e+13
1.03285e+13
1.03367e+13
1.0345e+13
1.03532e+13
1.03612e+13
1.03691e+13
1.03765e+13
1.03836e+13
1.03901e+13
1.03959e+13
1.0401e+13
1.04051e+13
1.04082e+13
1.04102e+13
1.01231e+13
1.01232e+13
1.01232e+13
1.01233e+13
1.01234e+13
1.01235e+13
1.01237e+13
1.01239e+13
1.01241e+13
1.01243e+13
1.01246e+13
1.01249e+13
1.01252e+13
1.01255e+13
1.01259e+13
1.01263e+13
1.01267e+13
1.01272e+13
1.01277e+13
1.01282e+13
1.01287e+13
1.01293e+13
1.01299e+13
1.01306e+13
1.01312e+13
1.01319e+13
1.01327e+13
1.01335e+13
1.01343e+13
1.01351e+13
1.0136e+13
1.01369e+13
1.01379e+13
1.01389e+13
1.01399e+13
1.0141e+13
1.01422e+13
1.01433e+13
1.01446e+13
1.01458e+13
1.01471e+13
1.01485e+13
1.01499e+13
1.01514e+13
1.0153e+13
1.01546e+13
1.01562e+13
1.01579e+13
1.01597e+13
1.01616e+13
1.01635e+13
1.01655e+13
1.01676e+13
1.01698e+13
1.0172e+13
1.01744e+13
1.01768e+13
1.01793e+13
1.0182e+13
1.01847e+13
1.01876e+13
1.01905e+13
1.01936e+13
1.01968e+13
1.02002e+13
1.02037e+13
1.02073e+13
1.02111e+13
1.02151e+13
1.02192e+13
1.02236e+13
1.02281e+13
1.02328e+13
1.02377e+13
1.02428e+13
1.02482e+13
1.02538e+13
1.02596e+13
1.02656e+13
1.02719e+13
1.02784e+13
1.02852e+13
1.02922e+13
1.02993e+13
1.03067e+13
1.03141e+13
1.03217e+13
1.03293e+13
1.03369e+13
1.03445e+13
1.03519e+13
1.03591e+13
1.03659e+13
1.03723e+13
1.03782e+13
1.03835e+13
1.0388e+13
1.03918e+13
1.03947e+13
1.03966e+13
1.01228e+13
1.01228e+13
1.01228e+13
1.01229e+13
1.0123e+13
1.01231e+13
1.01233e+13
1.01235e+13
1.01237e+13
1.01239e+13
1.01242e+13
1.01245e+13
1.01248e+13
1.01251e+13
1.01255e+13
1.01259e+13
1.01263e+13
1.01268e+13
1.01272e+13
1.01278e+13
1.01283e+13
1.01289e+13
1.01295e+13
1.01301e+13
1.01308e+13
1.01315e+13
1.01322e+13
1.0133e+13
1.01338e+13
1.01346e+13
1.01355e+13
1.01364e+13
1.01374e+13
1.01384e+13
1.01394e+13
1.01405e+13
1.01416e+13
1.01428e+13
1.0144e+13
1.01453e+13
1.01466e+13
1.01479e+13
1.01493e+13
1.01508e+13
1.01523e+13
1.01539e+13
1.01556e+13
1.01573e+13
1.0159e+13
1.01609e+13
1.01628e+13
1.01647e+13
1.01668e+13
1.01689e+13
1.01711e+13
1.01735e+13
1.01758e+13
1.01783e+13
1.01809e+13
1.01836e+13
1.01864e+13
1.01893e+13
1.01923e+13
1.01955e+13
1.01988e+13
1.02022e+13
1.02057e+13
1.02095e+13
1.02133e+13
1.02173e+13
1.02215e+13
1.02259e+13
1.02305e+13
1.02352e+13
1.02402e+13
1.02453e+13
1.02507e+13
1.02562e+13
1.0262e+13
1.0268e+13
1.02742e+13
1.02806e+13
1.02872e+13
1.02939e+13
1.03008e+13
1.03078e+13
1.03149e+13
1.03219e+13
1.0329e+13
1.0336e+13
1.03428e+13
1.03494e+13
1.03556e+13
1.03614e+13
1.03668e+13
1.03716e+13
1.03757e+13
1.03791e+13
1.03818e+13
1.03837e+13
1.01223e+13
1.01224e+13
1.01224e+13
1.01225e+13
1.01226e+13
1.01227e+13
1.01229e+13
1.01231e+13
1.01233e+13
1.01235e+13
1.01238e+13
1.0124e+13
1.01244e+13
1.01247e+13
1.01251e+13
1.01255e+13
1.01259e+13
1.01263e+13
1.01268e+13
1.01273e+13
1.01279e+13
1.01284e+13
1.0129e+13
1.01297e+13
1.01303e+13
1.0131e+13
1.01318e+13
1.01325e+13
1.01333e+13
1.01342e+13
1.0135e+13
1.01359e+13
1.01369e+13
1.01379e+13
1.01389e+13
1.014e+13
1.01411e+13
1.01422e+13
1.01434e+13
1.01447e+13
1.0146e+13
1.01473e+13
1.01487e+13
1.01502e+13
1.01517e+13
1.01532e+13
1.01548e+13
1.01565e+13
1.01583e+13
1.01601e+13
1.0162e+13
1.01639e+13
1.01659e+13
1.0168e+13
1.01702e+13
1.01725e+13
1.01748e+13
1.01773e+13
1.01798e+13
1.01825e+13
1.01852e+13
1.0188e+13
1.0191e+13
1.01941e+13
1.01973e+13
1.02006e+13
1.02041e+13
1.02077e+13
1.02115e+13
1.02154e+13
1.02194e+13
1.02237e+13
1.02281e+13
1.02327e+13
1.02374e+13
1.02424e+13
1.02475e+13
1.02528e+13
1.02583e+13
1.0264e+13
1.02699e+13
1.0276e+13
1.02822e+13
1.02885e+13
1.0295e+13
1.03015e+13
1.03081e+13
1.03147e+13
1.03212e+13
1.03276e+13
1.03339e+13
1.03399e+13
1.03457e+13
1.0351e+13
1.03559e+13
1.03602e+13
1.0364e+13
1.03671e+13
1.03695e+13
1.03713e+13
1.01219e+13
1.01219e+13
1.0122e+13
1.01221e+13
1.01222e+13
1.01223e+13
1.01224e+13
1.01226e+13
1.01228e+13
1.01231e+13
1.01233e+13
1.01236e+13
1.01239e+13
1.01242e+13
1.01246e+13
1.0125e+13
1.01254e+13
1.01259e+13
1.01263e+13
1.01269e+13
1.01274e+13
1.0128e+13
1.01286e+13
1.01292e+13
1.01298e+13
1.01305e+13
1.01313e+13
1.0132e+13
1.01328e+13
1.01336e+13
1.01345e+13
1.01354e+13
1.01363e+13
1.01373e+13
1.01383e+13
1.01394e+13
1.01405e+13
1.01416e+13
1.01428e+13
1.0144e+13
1.01453e+13
1.01467e+13
1.0148e+13
1.01495e+13
1.0151e+13
1.01525e+13
1.01541e+13
1.01558e+13
1.01575e+13
1.01593e+13
1.01611e+13
1.0163e+13
1.0165e+13
1.01671e+13
1.01692e+13
1.01715e+13
1.01738e+13
1.01762e+13
1.01787e+13
1.01812e+13
1.01839e+13
1.01867e+13
1.01896e+13
1.01926e+13
1.01958e+13
1.0199e+13
1.02024e+13
1.02059e+13
1.02095e+13
1.02133e+13
1.02173e+13
1.02214e+13
1.02256e+13
1.023e+13
1.02346e+13
1.02393e+13
1.02443e+13
1.02493e+13
1.02546e+13
1.026e+13
1.02656e+13
1.02713e+13
1.02772e+13
1.02831e+13
1.02892e+13
1.02953e+13
1.03014e+13
1.03075e+13
1.03136e+13
1.03195e+13
1.03253e+13
1.03308e+13
1.03361e+13
1.0341e+13
1.03454e+13
1.03494e+13
1.03529e+13
1.03557e+13
1.0358e+13
1.03596e+13
1.01215e+13
1.01215e+13
1.01215e+13
1.01216e+13
1.01217e+13
1.01218e+13
1.0122e+13
1.01222e+13
1.01224e+13
1.01226e+13
1.01229e+13
1.01231e+13
1.01234e+13
1.01238e+13
1.01241e+13
1.01245e+13
1.01249e+13
1.01254e+13
1.01259e+13
1.01264e+13
1.01269e+13
1.01275e+13
1.0128e+13
1.01287e+13
1.01293e+13
1.013e+13
1.01307e+13
1.01315e+13
1.01323e+13
1.01331e+13
1.01339e+13
1.01348e+13
1.01358e+13
1.01367e+13
1.01377e+13
1.01388e+13
1.01399e+13
1.0141e+13
1.01422e+13
1.01434e+13
1.01447e+13
1.0146e+13
1.01473e+13
1.01487e+13
1.01502e+13
1.01517e+13
1.01533e+13
1.01549e+13
1.01566e+13
1.01584e+13
1.01602e+13
1.01621e+13
1.01641e+13
1.01661e+13
1.01682e+13
1.01704e+13
1.01727e+13
1.0175e+13
1.01775e+13
1.018e+13
1.01826e+13
1.01853e+13
1.01882e+13
1.01911e+13
1.01942e+13
1.01973e+13
1.02006e+13
1.0204e+13
1.02076e+13
1.02112e+13
1.0215e+13
1.0219e+13
1.02231e+13
1.02273e+13
1.02317e+13
1.02363e+13
1.0241e+13
1.02458e+13
1.02508e+13
1.0256e+13
1.02612e+13
1.02666e+13
1.02722e+13
1.02778e+13
1.02834e+13
1.02891e+13
1.02948e+13
1.03005e+13
1.03061e+13
1.03116e+13
1.03169e+13
1.0322e+13
1.03269e+13
1.03314e+13
1.03355e+13
1.03391e+13
1.03423e+13
1.0345e+13
1.03471e+13
1.03487e+13
1.0121e+13
1.0121e+13
1.01211e+13
1.01211e+13
1.01212e+13
1.01214e+13
1.01215e+13
1.01217e+13
1.01219e+13
1.01221e+13
1.01224e+13
1.01227e+13
1.0123e+13
1.01233e+13
1.01236e+13
1.0124e+13
1.01244e+13
1.01249e+13
1.01254e+13
1.01259e+13
1.01264e+13
1.01269e+13
1.01275e+13
1.01281e+13
1.01288e+13
1.01295e+13
1.01302e+13
1.01309e+13
1.01317e+13
1.01325e+13
1.01334e+13
1.01342e+13
1.01352e+13
1.01361e+13
1.01371e+13
1.01381e+13
1.01392e+13
1.01403e+13
1.01415e+13
1.01427e+13
1.0144e+13
1.01452e+13
1.01466e+13
1.0148e+13
1.01494e+13
1.01509e+13
1.01525e+13
1.01541e+13
1.01558e+13
1.01575e+13
1.01593e+13
1.01612e+13
1.01631e+13
1.01651e+13
1.01671e+13
1.01693e+13
1.01715e+13
1.01738e+13
1.01762e+13
1.01787e+13
1.01813e+13
1.01839e+13
1.01867e+13
1.01895e+13
1.01925e+13
1.01956e+13
1.01988e+13
1.02021e+13
1.02055e+13
1.02091e+13
1.02127e+13
1.02166e+13
1.02205e+13
1.02246e+13
1.02288e+13
1.02331e+13
1.02376e+13
1.02423e+13
1.0247e+13
1.02519e+13
1.02569e+13
1.0262e+13
1.02672e+13
1.02725e+13
1.02778e+13
1.02831e+13
1.02884e+13
1.02937e+13
1.02989e+13
1.03039e+13
1.03089e+13
1.03136e+13
1.0318e+13
1.03222e+13
1.03259e+13
1.03293e+13
1.03322e+13
1.03347e+13
1.03367e+13
1.03382e+13
1.01205e+13
1.01205e+13
1.01206e+13
1.01206e+13
1.01207e+13
1.01209e+13
1.0121e+13
1.01212e+13
1.01214e+13
1.01216e+13
1.01219e+13
1.01221e+13
1.01224e+13
1.01228e+13
1.01231e+13
1.01235e+13
1.01239e+13
1.01244e+13
1.01248e+13
1.01253e+13
1.01258e+13
1.01264e+13
1.0127e+13
1.01276e+13
1.01282e+13
1.01289e+13
1.01296e+13
1.01303e+13
1.01311e+13
1.01319e+13
1.01327e+13
1.01336e+13
1.01345e+13
1.01355e+13
1.01365e+13
1.01375e+13
1.01385e+13
1.01396e+13
1.01408e+13
1.0142e+13
1.01432e+13
1.01445e+13
1.01458e+13
1.01472e+13
1.01486e+13
1.01501e+13
1.01516e+13
1.01532e+13
1.01549e+13
1.01566e+13
1.01583e+13
1.01602e+13
1.01621e+13
1.0164e+13
1.0166e+13
1.01681e+13
1.01703e+13
1.01726e+13
1.01749e+13
1.01773e+13
1.01799e+13
1.01825e+13
1.01851e+13
1.01879e+13
1.01908e+13
1.01938e+13
1.01969e+13
1.02001e+13
1.02034e+13
1.02069e+13
1.02104e+13
1.02141e+13
1.02179e+13
1.02218e+13
1.02258e+13
1.023e+13
1.02343e+13
1.02387e+13
1.02432e+13
1.02478e+13
1.02526e+13
1.02574e+13
1.02623e+13
1.02672e+13
1.02722e+13
1.02771e+13
1.02821e+13
1.0287e+13
1.02918e+13
1.02965e+13
1.03011e+13
1.03054e+13
1.03095e+13
1.03134e+13
1.03168e+13
1.032e+13
1.03227e+13
1.0325e+13
1.03269e+13
1.03283e+13
1.012e+13
1.012e+13
1.01201e+13
1.01201e+13
1.01202e+13
1.01203e+13
1.01205e+13
1.01207e+13
1.01209e+13
1.01211e+13
1.01213e+13
1.01216e+13
1.01219e+13
1.01222e+13
1.01226e+13
1.0123e+13
1.01234e+13
1.01238e+13
1.01243e+13
1.01248e+13
1.01253e+13
1.01258e+13
1.01264e+13
1.0127e+13
1.01276e+13
1.01283e+13
1.0129e+13
1.01297e+13
1.01305e+13
1.01313e+13
1.01321e+13
1.0133e+13
1.01339e+13
1.01348e+13
1.01358e+13
1.01368e+13
1.01378e+13
1.01389e+13
1.01401e+13
1.01412e+13
1.01425e+13
1.01437e+13
1.0145e+13
1.01464e+13
1.01478e+13
1.01492e+13
1.01508e+13
1.01523e+13
1.01539e+13
1.01556e+13
1.01573e+13
1.01591e+13
1.0161e+13
1.01629e+13
1.01649e+13
1.0167e+13
1.01691e+13
1.01713e+13
1.01736e+13
1.0176e+13
1.01784e+13
1.01809e+13
1.01836e+13
1.01863e+13
1.01891e+13
1.0192e+13
1.0195e+13
1.01981e+13
1.02013e+13
1.02046e+13
1.0208e+13
1.02116e+13
1.02152e+13
1.0219e+13
1.02228e+13
1.02268e+13
1.02309e+13
1.02351e+13
1.02394e+13
1.02438e+13
1.02483e+13
1.02528e+13
1.02574e+13
1.0262e+13
1.02667e+13
1.02713e+13
1.0276e+13
1.02805e+13
1.0285e+13
1.02894e+13
1.02936e+13
1.02976e+13
1.03014e+13
1.03049e+13
1.03082e+13
1.03111e+13
1.03136e+13
1.03158e+13
1.03175e+13
1.03189e+13
1.01194e+13
1.01195e+13
1.01195e+13
1.01196e+13
1.01197e+13
1.01198e+13
1.012e+13
1.01201e+13
1.01203e+13
1.01205e+13
1.01208e+13
1.01211e+13
1.01214e+13
1.01217e+13
1.0122e+13
1.01224e+13
1.01228e+13
1.01232e+13
1.01237e+13
1.01242e+13
1.01247e+13
1.01252e+13
1.01258e+13
1.01264e+13
1.0127e+13
1.01277e+13
1.01284e+13
1.01291e+13
1.01298e+13
1.01306e+13
1.01315e+13
1.01323e+13
1.01332e+13
1.01341e+13
1.01351e+13
1.01361e+13
1.01371e+13
1.01382e+13
1.01393e+13
1.01405e+13
1.01417e+13
1.01429e+13
1.01442e+13
1.01455e+13
1.01469e+13
1.01484e+13
1.01498e+13
1.01514e+13
1.0153e+13
1.01546e+13
1.01563e+13
1.01581e+13
1.01599e+13
1.01618e+13
1.01637e+13
1.01658e+13
1.01678e+13
1.017e+13
1.01722e+13
1.01745e+13
1.01769e+13
1.01794e+13
1.01819e+13
1.01846e+13
1.01873e+13
1.01901e+13
1.0193e+13
1.0196e+13
1.01991e+13
1.02023e+13
1.02056e+13
1.0209e+13
1.02125e+13
1.02161e+13
1.02199e+13
1.02237e+13
1.02276e+13
1.02315e+13
1.02356e+13
1.02398e+13
1.0244e+13
1.02483e+13
1.02526e+13
1.0257e+13
1.02613e+13
1.02657e+13
1.027e+13
1.02742e+13
1.02784e+13
1.02825e+13
1.02864e+13
1.02901e+13
1.02936e+13
1.02969e+13
1.02999e+13
1.03026e+13
1.0305e+13
1.0307e+13
1.03086e+13
1.03099e+13
1.01189e+13
1.01189e+13
1.0119e+13
1.0119e+13
1.01191e+13
1.01192e+13
1.01194e+13
1.01196e+13
1.01198e+13
1.012e+13
1.01202e+13
1.01205e+13
1.01208e+13
1.01211e+13
1.01214e+13
1.01218e+13
1.01222e+13
1.01226e+13
1.01231e+13
1.01236e+13
1.01241e+13
1.01246e+13
1.01252e+13
1.01258e+13
1.01264e+13
1.0127e+13
1.01277e+13
1.01284e+13
1.01292e+13
1.013e+13
1.01308e+13
1.01316e+13
1.01325e+13
1.01334e+13
1.01344e+13
1.01353e+13
1.01364e+13
1.01374e+13
1.01385e+13
1.01397e+13
1.01409e+13
1.01421e+13
1.01434e+13
1.01447e+13
1.0146e+13
1.01474e+13
1.01489e+13
1.01504e+13
1.0152e+13
1.01536e+13
1.01553e+13
1.0157e+13
1.01588e+13
1.01606e+13
1.01625e+13
1.01645e+13
1.01665e+13
1.01687e+13
1.01708e+13
1.01731e+13
1.01754e+13
1.01778e+13
1.01803e+13
1.01829e+13
1.01855e+13
1.01882e+13
1.01911e+13
1.0194e+13
1.0197e+13
1.02e+13
1.02032e+13
1.02065e+13
1.02099e+13
1.02133e+13
1.02169e+13
1.02205e+13
1.02242e+13
1.0228e+13
1.02319e+13
1.02358e+13
1.02398e+13
1.02439e+13
1.02479e+13
1.0252e+13
1.02561e+13
1.02602e+13
1.02642e+13
1.02681e+13
1.0272e+13
1.02758e+13
1.02794e+13
1.02829e+13
1.02862e+13
1.02892e+13
1.0292e+13
1.02945e+13
1.02967e+13
1.02986e+13
1.03002e+13
1.03014e+13
1.01183e+13
1.01183e+13
1.01184e+13
1.01185e+13
1.01185e+13
1.01187e+13
1.01188e+13
1.0119e+13
1.01192e+13
1.01194e+13
1.01196e+13
1.01199e+13
1.01202e+13
1.01205e+13
1.01208e+13
1.01212e+13
1.01216e+13
1.0122e+13
1.01225e+13
1.0123e+13
1.01235e+13
1.0124e+13
1.01245e+13
1.01251e+13
1.01257e+13
1.01264e+13
1.01271e+13
1.01278e+13
1.01285e+13
1.01293e+13
1.01301e+13
1.01309e+13
1.01318e+13
1.01327e+13
1.01336e+13
1.01346e+13
1.01356e+13
1.01366e+13
1.01377e+13
1.01388e+13
1.014e+13
1.01412e+13
1.01425e+13
1.01438e+13
1.01451e+13
1.01465e+13
1.01479e+13
1.01494e+13
1.01509e+13
1.01525e+13
1.01542e+13
1.01559e+13
1.01576e+13
1.01594e+13
1.01613e+13
1.01632e+13
1.01652e+13
1.01673e+13
1.01694e+13
1.01716e+13
1.01739e+13
1.01762e+13
1.01786e+13
1.01811e+13
1.01837e+13
1.01863e+13
1.0189e+13
1.01919e+13
1.01947e+13
1.01977e+13
1.02008e+13
1.02039e+13
1.02072e+13
1.02105e+13
1.02139e+13
1.02173e+13
1.02209e+13
1.02245e+13
1.02282e+13
1.02319e+13
1.02357e+13
1.02395e+13
1.02433e+13
1.02472e+13
1.0251e+13
1.02548e+13
1.02586e+13
1.02623e+13
1.02659e+13
1.02694e+13
1.02728e+13
1.0276e+13
1.0279e+13
1.02819e+13
1.02845e+13
1.02868e+13
1.02889e+13
1.02906e+13
1.02921e+13
1.02933e+13
1.01177e+13
1.01177e+13
1.01178e+13
1.01179e+13
1.01179e+13
1.01181e+13
1.01182e+13
1.01184e+13
1.01186e+13
1.01188e+13
1.0119e+13
1.01193e+13
1.01196e+13
1.01199e+13
1.01202e+13
1.01206e+13
1.0121e+13
1.01214e+13
1.01218e+13
1.01223e+13
1.01228e+13
1.01233e+13
1.01239e+13
1.01245e+13
1.01251e+13
1.01257e+13
1.01264e+13
1.01271e+13
1.01278e+13
1.01286e+13
1.01293e+13
1.01302e+13
1.0131e+13
1.01319e+13
1.01328e+13
1.01338e+13
1.01348e+13
1.01358e+13
1.01369e+13
1.0138e+13
1.01392e+13
1.01403e+13
1.01416e+13
1.01428e+13
1.01442e+13
1.01455e+13
1.01469e+13
1.01484e+13
1.01499e+13
1.01515e+13
1.01531e+13
1.01547e+13
1.01564e+13
1.01582e+13
1.016e+13
1.01619e+13
1.01639e+13
1.01659e+13
1.0168e+13
1.01701e+13
1.01723e+13
1.01746e+13
1.01769e+13
1.01793e+13
1.01818e+13
1.01844e+13
1.0187e+13
1.01897e+13
1.01925e+13
1.01954e+13
1.01983e+13
1.02014e+13
1.02045e+13
1.02076e+13
1.02109e+13
1.02142e+13
1.02175e+13
1.0221e+13
1.02245e+13
1.0228e+13
1.02316e+13
1.02352e+13
1.02388e+13
1.02424e+13
1.0246e+13
1.02496e+13
1.02531e+13
1.02565e+13
1.02599e+13
1.02632e+13
1.02664e+13
1.02694e+13
1.02722e+13
1.02748e+13
1.02773e+13
1.02794e+13
1.02814e+13
1.02831e+13
1.02845e+13
1.02856e+13
1.01171e+13
1.01171e+13
1.01172e+13
1.01172e+13
1.01173e+13
1.01174e+13
1.01176e+13
1.01178e+13
1.01179e+13
1.01182e+13
1.01184e+13
1.01187e+13
1.01189e+13
1.01193e+13
1.01196e+13
1.01199e+13
1.01203e+13
1.01207e+13
1.01212e+13
1.01216e+13
1.01221e+13
1.01227e+13
1.01232e+13
1.01238e+13
1.01244e+13
1.0125e+13
1.01257e+13
1.01264e+13
1.01271e+13
1.01278e+13
1.01286e+13
1.01294e+13
1.01303e+13
1.01311e+13
1.0132e+13
1.0133e+13
1.0134e+13
1.0135e+13
1.0136e+13
1.01371e+13
1.01383e+13
1.01394e+13
1.01406e+13
1.01419e+13
1.01432e+13
1.01445e+13
1.01459e+13
1.01473e+13
1.01488e+13
1.01504e+13
1.01519e+13
1.01536e+13
1.01552e+13
1.0157e+13
1.01587e+13
1.01606e+13
1.01625e+13
1.01645e+13
1.01665e+13
1.01686e+13
1.01707e+13
1.01729e+13
1.01752e+13
1.01775e+13
1.01799e+13
1.01824e+13
1.0185e+13
1.01876e+13
1.01903e+13
1.01931e+13
1.01959e+13
1.01988e+13
1.02018e+13
1.02048e+13
1.02079e+13
1.0211e+13
1.02143e+13
1.02175e+13
1.02208e+13
1.02242e+13
1.02276e+13
1.0231e+13
1.02344e+13
1.02378e+13
1.02412e+13
1.02445e+13
1.02478e+13
1.0251e+13
1.02542e+13
1.02572e+13
1.02602e+13
1.0263e+13
1.02656e+13
1.02681e+13
1.02704e+13
1.02724e+13
1.02742e+13
1.02758e+13
1.02771e+13
1.02782e+13
1.01165e+13
1.01165e+13
1.01165e+13
1.01166e+13
1.01167e+13
1.01168e+13
1.0117e+13
1.01171e+13
1.01173e+13
1.01175e+13
1.01177e+13
1.0118e+13
1.01183e+13
1.01186e+13
1.01189e+13
1.01193e+13
1.01197e+13
1.01201e+13
1.01205e+13
1.0121e+13
1.01215e+13
1.0122e+13
1.01225e+13
1.01231e+13
1.01237e+13
1.01243e+13
1.01249e+13
1.01256e+13
1.01263e+13
1.01271e+13
1.01278e+13
1.01286e+13
1.01295e+13
1.01303e+13
1.01312e+13
1.01322e+13
1.01331e+13
1.01341e+13
1.01352e+13
1.01362e+13
1.01374e+13
1.01385e+13
1.01397e+13
1.01409e+13
1.01422e+13
1.01435e+13
1.01449e+13
1.01463e+13
1.01477e+13
1.01492e+13
1.01508e+13
1.01524e+13
1.0154e+13
1.01557e+13
1.01574e+13
1.01592e+13
1.01611e+13
1.0163e+13
1.0165e+13
1.0167e+13
1.01691e+13
1.01712e+13
1.01735e+13
1.01757e+13
1.01781e+13
1.01805e+13
1.01829e+13
1.01855e+13
1.01881e+13
1.01907e+13
1.01934e+13
1.01962e+13
1.01991e+13
1.0202e+13
1.02049e+13
1.0208e+13
1.0211e+13
1.02141e+13
1.02173e+13
1.02205e+13
1.02237e+13
1.02269e+13
1.02301e+13
1.02333e+13
1.02365e+13
1.02396e+13
1.02427e+13
1.02457e+13
1.02486e+13
1.02515e+13
1.02543e+13
1.02569e+13
1.02594e+13
1.02617e+13
1.02638e+13
1.02657e+13
1.02674e+13
1.02689e+13
1.02702e+13
1.02712e+13
1.01158e+13
1.01158e+13
1.01159e+13
1.01159e+13
1.0116e+13
1.01162e+13
1.01163e+13
1.01165e+13
1.01166e+13
1.01168e+13
1.01171e+13
1.01173e+13
1.01176e+13
1.01179e+13
1.01183e+13
1.01186e+13
1.0119e+13
1.01194e+13
1.01198e+13
1.01203e+13
1.01207e+13
1.01213e+13
1.01218e+13
1.01223e+13
1.01229e+13
1.01235e+13
1.01242e+13
1.01249e+13
1.01256e+13
1.01263e+13
1.0127e+13
1.01278e+13
1.01287e+13
1.01295e+13
1.01304e+13
1.01313e+13
1.01323e+13
1.01333e+13
1.01343e+13
1.01353e+13
1.01364e+13
1.01376e+13
1.01387e+13
1.01399e+13
1.01412e+13
1.01425e+13
1.01438e+13
1.01452e+13
1.01466e+13
1.01481e+13
1.01496e+13
1.01511e+13
1.01528e+13
1.01544e+13
1.01561e+13
1.01579e+13
1.01597e+13
1.01615e+13
1.01635e+13
1.01654e+13
1.01675e+13
1.01696e+13
1.01717e+13
1.01739e+13
1.01762e+13