/*--------------------------------*- C++ -*----------------------------------*\
  =========                 |
  \\      /  F ield         | OpenFOAM: The Open Source CFD Toolbox
   \\    /   O peration     | Website:  https://openfoam.org
    \\  /    A nd           | Version:  7
     \\/     M anipulation  |
\*---------------------------------------------------------------------------*/
FoamFile
{
    version     2.0;
    format      ascii;
    class       volScalarField;
    location    "6e-13/dielectric";
    object      voltDext;
}
// * * * * * * * * * * * * * * * * * * * * * * * * * * * * * * * * * * * * * //

dimensions      [1 2 -3 0 0 -1 0];

internalField   nonuniform List<scalar> 
4960
(
0.325479
0.322706
0.319962
0.317262
0.31461
0.312004
0.309443
0.306927
0.304454
0.302024
0.299636
0.29729
0.294985
0.292721
0.290496
0.288311
0.286165
0.284057
0.281987
0.279954
0.277957
0.275997
0.274072
0.272183
0.270329
0.268509
0.266723
0.264971
0.263251
0.261565
0.25991
0.258288
0.256697
0.255137
0.253609
0.25211
0.250642
0.249204
0.247795
0.246416
0.245065
0.243743
0.24245
0.241184
0.239946
0.238736
0.237553
0.236397
0.235267
0.234164
0.233088
0.232037
0.231013
0.230014
0.22904
0.228092
0.227169
0.22627
0.225397
0.224547
0.223723
0.222922
0.222145
0.221392
0.220663
0.219957
0.219275
0.218616
0.21798
0.217368
0.216778
0.216211
0.215666
0.215145
0.214645
0.214169
0.213714
0.213282
0.212871
0.212483
0.212117
0.211773
0.21145
0.211149
0.21087
0.210613
0.210378
0.210164
0.209971
0.2098
0.20965
0.209522
0.209416
0.20933
0.209267
0.209224
0.209203
0.9764
0.968059
0.959835
0.951741
0.943785
0.935968
0.928286
0.920737
0.913319
0.906029
0.898867
0.89183
0.884916
0.878123
0.871451
0.864896
0.858457
0.852134
0.845923
0.839825
0.833836
0.827956
0.822183
0.816516
0.810953
0.805494
0.800136
0.794879
0.789722
0.784662
0.7797
0.774833
0.770061
0.765382
0.760796
0.756302
0.751898
0.747584
0.743358
0.73922
0.735168
0.731202
0.727322
0.723525
0.719812
0.716181
0.712632
0.709164
0.705776
0.702468
0.699238
0.696087
0.693014
0.690017
0.687096
0.684252
0.681482
0.678787
0.676166
0.673619
0.671144
0.668742
0.666412
0.664153
0.661966
0.659849
0.657803
0.655826
0.653919
0.652081
0.650311
0.64861
0.646977
0.645412
0.643914
0.642484
0.64112
0.639823
0.638592
0.637428
0.636329
0.635297
0.634329
0.633427
0.63259
0.631819
0.631112
0.63047
0.629892
0.629379
0.628931
0.628546
0.628227
0.627971
0.627779
0.627652
0.627588
1.62722
1.61327
1.59956
1.58608
1.57282
1.5598
1.547
1.53442
1.52206
1.50991
1.49797
1.48625
1.47473
1.46341
1.45229
1.44137
1.43064
1.4201
1.40975
1.39959
1.38961
1.37981
1.37019
1.36075
1.35148
1.34238
1.33345
1.32469
1.3161
1.30766
1.29939
1.29128
1.28333
1.27554
1.26789
1.2604
1.25307
1.24588
1.23883
1.23194
1.22519
1.21858
1.21211
1.20578
1.1996
1.19355
1.18763
1.18185
1.17621
1.17069
1.16531
1.16006
1.15494
1.14995
1.14508
1.14034
1.13572
1.13123
1.12686
1.12262
1.11849
1.11449
1.11061
1.10685
1.1032
1.09967
1.09626
1.09297
1.08979
1.08673
1.08378
1.08094
1.07822
1.07561
1.07312
1.07073
1.06846
1.0663
1.06425
1.06231
1.06048
1.05876
1.05714
1.05564
1.05425
1.05296
1.05178
1.05071
1.04975
1.0489
1.04815
1.04751
1.04698
1.04655
1.04623
1.04602
1.04591
2.27783
2.25826
2.23905
2.22019
2.20164
2.18341
2.16549
2.14788
2.13058
2.11358
2.09688
2.08046
2.06434
2.0485
2.03293
2.01764
2.00263
1.98788
1.97339
1.95917
1.9452
1.93149
1.91802
1.9048
1.89183
1.8791
1.8666
1.85434
1.84231
1.83051
1.81893
1.80758
1.79645
1.78554
1.77484
1.76436
1.75409
1.74402
1.73417
1.72452
1.71507
1.70582
1.69676
1.68791
1.67925
1.67078
1.6625
1.65441
1.64651
1.63879
1.63126
1.62391
1.61674
1.60975
1.60294
1.5963
1.58984
1.58356
1.57744
1.5715
1.56573
1.56012
1.55469
1.54942
1.54432
1.53938
1.53461
1.53
1.52555
1.52126
1.51713
1.51317
1.50936
1.50571
1.50221
1.49888
1.49569
1.49267
1.4898
1.48708
1.48452
1.48211
1.47985
1.47775
1.4758
1.474
1.47235
1.47085
1.4695
1.46831
1.46726
1.46637
1.46562
1.46502
1.46458
1.46428
1.46413
2.92808
2.90292
2.87823
2.85397
2.83013
2.8067
2.78367
2.76105
2.73881
2.71696
2.69549
2.6744
2.65367
2.63331
2.61331
2.59366
2.57436
2.5554
2.53678
2.5185
2.50055
2.48292
2.46561
2.44863
2.43195
2.41558
2.39952
2.38376
2.3683
2.35313
2.33825
2.32366
2.30936
2.29533
2.28158
2.26811
2.25491
2.24197
2.2293
2.2169
2.20475
2.19286
2.18122
2.16984
2.15871
2.14782
2.13718
2.12679
2.11663
2.10671
2.09703
2.08758
2.07837
2.06938
2.06062
2.0521
2.04379
2.03571
2.02785
2.02022
2.0128
2.00559
1.99861
1.99184
1.98528
1.97893
1.9728
1.96687
1.96115
1.95564
1.95033
1.94523
1.94034
1.93565
1.93116
1.92687
1.92278
1.91889
1.9152
1.91171
1.90841
1.90532
1.90242
1.89971
1.8972
1.89489
1.89277
1.89084
1.88911
1.88758
1.88623
1.88508
1.88412
1.88335
1.88278
1.8824
1.88221
3.57786
3.54715
3.51698
3.48735
3.45822
3.4296
3.40147
3.37382
3.34666
3.31996
3.29374
3.26796
3.24264
3.21777
3.19333
3.16933
3.14575
3.12259
3.09984
3.07751
3.05557
3.03404
3.01289
2.99214
2.97177
2.95177
2.93215
2.91289
2.894
2.87547
2.85729
2.83947
2.82199
2.80485
2.78805
2.77159
2.75546
2.73966
2.72418
2.70902
2.69418
2.67965
2.66544
2.65153
2.63793
2.62463
2.61163
2.59893
2.58652
2.5744
2.56257
2.55103
2.53977
2.52879
2.51809
2.50767
2.49752
2.48765
2.47805
2.46872
2.45965
2.45085
2.44232
2.43404
2.42603
2.41828
2.41078
2.40354
2.39655
2.38982
2.38334
2.3771
2.37112
2.36539
2.3599
2.35466
2.34967
2.34491
2.34041
2.33614
2.33212
2.32833
2.32479
2.32148
2.31842
2.31559
2.313
2.31065
2.30854
2.30666
2.30501
2.30361
2.30243
2.3015
2.3008
2.30033
2.3001
4.22708
4.19085
4.15523
4.12022
4.08581
4.052
4.01878
3.98613
3.95404
3.92251
3.89153
3.86109
3.83118
3.8018
3.77293
3.74458
3.71673
3.68937
3.6625
3.63612
3.61021
3.58477
3.5598
3.53528
3.51121
3.48759
3.46441
3.44167
3.41935
3.39746
3.37599
3.35493
3.33428
3.31404
3.2942
3.27475
3.2557
3.23703
3.21874
3.20084
3.18331
3.16615
3.14935
3.13292
3.11686
3.10115
3.08579
3.07078
3.05612
3.0418
3.02783
3.01419
3.00089
2.98792
2.97529
2.96298
2.95099
2.93933
2.92799
2.91696
2.90625
2.89586
2.88577
2.876
2.86653
2.85737
2.84852
2.83996
2.83171
2.82375
2.81609
2.80873
2.80167
2.79489
2.78841
2.78222
2.77632
2.7707
2.76538
2.76034
2.75559
2.75112
2.74693
2.74303
2.7394
2.73606
2.73301
2.73023
2.72773
2.72551
2.72357
2.72191
2.72052
2.71942
2.71859
2.71804
2.71776
4.87569
4.83392
4.79286
4.75249
4.71282
4.67384
4.63552
4.59787
4.56087
4.52452
4.48879
4.45369
4.4192
4.38532
4.35203
4.31934
4.28722
4.25567
4.22469
4.19426
4.16439
4.13505
4.10625
4.07798
4.05022
4.02298
3.99625
3.97002
3.94429
3.91904
3.89428
3.87
3.84619
3.82284
3.79996
3.77753
3.75556
3.73403
3.71294
3.69229
3.67207
3.65228
3.63291
3.61397
3.59544
3.57732
3.5596
3.5423
3.52539
3.50888
3.49276
3.47704
3.4617
3.44674
3.43217
3.41797
3.40414
3.39069
3.37761
3.3649
3.35255
3.34056
3.32893
3.31766
3.30674
3.29617
3.28596
3.27609
3.26657
3.2574
3.24857
3.24008
3.23193
3.22411
3.21664
3.2095
3.20269
3.19622
3.19007
3.18426
3.17878
3.17362
3.1688
3.16429
3.16012
3.15627
3.15274
3.14953
3.14665
3.14409
3.14185
3.13994
3.13834
3.13707
3.13611
3.13548
3.13516
5.52361
5.47629
5.42979
5.38408
5.33916
5.29501
5.25162
5.20898
5.16707
5.1259
5.08544
5.04569
5.00663
4.96826
4.93056
4.89353
4.85715
4.82142
4.78633
4.75187
4.71803
4.68481
4.65219
4.62016
4.58873
4.55788
4.5276
4.4979
4.46875
4.44015
4.41211
4.3846
4.35763
4.33119
4.30527
4.27987
4.25498
4.23059
4.20671
4.18332
4.16042
4.138
4.11606
4.0946
4.07361
4.05309
4.03303
4.01342
3.99427
3.97557
3.95732
3.9395
3.92213
3.90519
3.88868
3.87259
3.85694
3.8417
3.82688
3.81248
3.79849
3.78491
3.77174
3.75897
3.7466
3.73463
3.72306
3.71189
3.7011
3.69071
3.68071
3.67109
3.66186
3.65301
3.64454
3.63645
3.62874
3.62141
3.61445
3.60787
3.60166
3.59582
3.59035
3.58525
3.58052
3.57616
3.57216
3.56853
3.56527
3.56237
3.55983
3.55766
3.55585
3.55441
3.55333
3.55261
3.55225
6.17072
6.11787
6.06594
6.01489
5.96473
5.91543
5.86697
5.81935
5.77256
5.72658
5.6814
5.637
5.59338
5.55053
5.50843
5.46707
5.42645
5.38655
5.34736
5.30887
5.27108
5.23397
5.19754
5.16178
5.12667
5.09222
5.0584
5.02522
4.99267
4.96073
4.92941
4.89869
4.86856
4.83903
4.81008
4.78171
4.75391
4.72667
4.7
4.67387
4.64829
4.62326
4.59875
4.57478
4.55134
4.52842
4.50601
4.48411
4.46272
4.44183
4.42144
4.40155
4.38214
4.36321
4.34477
4.32681
4.30932
4.2923
4.27575
4.25967
4.24404
4.22887
4.21416
4.19989
4.18608
4.17271
4.15979
4.1473
4.13526
4.12365
4.11248
4.10173
4.09142
4.08154
4.07208
4.06304
4.05443
4.04624
4.03847
4.03111
4.02418
4.01765
4.01155
4.00585
4.00057
3.99569
3.99123
3.98718
3.98353
3.98029
3.97746
3.97503
3.97301
3.9714
3.97019
3.96939
3.96899
6.81692
6.75856
6.70121
6.64485
6.58945
6.53501
6.4815
6.42892
6.37725
6.32647
6.27658
6.22756
6.17939
6.13206
6.08557
6.0399
5.99504
5.95097
5.9077
5.86519
5.82346
5.78248
5.74225
5.70275
5.66398
5.62592
5.58858
5.55194
5.51598
5.48071
5.44612
5.41219
5.37892
5.34631
5.31433
5.283
5.25229
5.22221
5.19275
5.16389
5.13564
5.10799
5.08093
5.05446
5.02856
5.00324
4.97849
4.95431
4.93068
4.90761
4.88509
4.86311
4.84168
4.82078
4.80041
4.78057
4.76125
4.74245
4.72417
4.7064
4.68914
4.67239
4.65614
4.64038
4.62513
4.61036
4.59608
4.5823
4.56899
4.55617
4.54383
4.53196
4.52057
4.50965
4.49921
4.48923
4.47972
4.47067
4.46208
4.45396
4.4463
4.43909
4.43235
4.42605
4.42022
4.41484
4.40991
4.40543
4.4014
4.39782
4.3947
4.39202
4.38979
4.38801
4.38667
4.38579
4.38535
7.4621
7.39825
7.33551
7.27384
7.21324
7.15367
7.09513
7.0376
6.98106
6.9255
6.87091
6.81727
6.76456
6.71278
6.66191
6.61194
6.56285
6.51463
6.46728
6.42077
6.3751
6.33026
6.28623
6.24301
6.20058
6.15894
6.11808
6.07798
6.03863
6.00004
5.96218
5.92505
5.88865
5.85295
5.81796
5.78367
5.75007
5.71715
5.68491
5.65333
5.62241
5.59215
5.56254
5.53356
5.50523
5.47752
5.45043
5.42396
5.39811
5.37286
5.34821
5.32416
5.3007
5.27783
5.25553
5.23382
5.21268
5.19211
5.1721
5.15265
5.13376
5.11543
5.09764
5.0804
5.0637
5.04754
5.03191
5.01682
5.00226
4.98823
4.97472
4.96173
4.94927
4.93732
4.92588
4.91496
4.90455
4.89465
4.88525
4.87636
4.86798
4.86009
4.85271
4.84582
4.83943
4.83354
4.82815
4.82325
4.81884
4.81492
4.8115
4.80857
4.80613
4.80418
4.80272
4.80175
4.80127
8.1062
8.03687
7.96875
7.9018
7.836
7.77132
7.70776
7.64529
7.58391
7.52358
7.46431
7.40606
7.34884
7.29261
7.23737
7.18311
7.1298
7.07745
7.02603
6.97553
6.92593
6.87724
6.82943
6.7825
6.73643
6.69121
6.64683
6.60328
6.56056
6.51865
6.47753
6.43721
6.39768
6.35891
6.32092
6.28368
6.24719
6.21144
6.17642
6.14212
6.10855
6.07568
6.04352
6.01206
5.98128
5.95119
5.92177
5.89303
5.86494
5.83752
5.81075
5.78463
5.75915
5.73431
5.7101
5.68652
5.66356
5.64121
5.61948
5.59836
5.57785
5.55793
5.53861
5.51989
5.50175
5.4842
5.46723
5.45084
5.43502
5.41978
5.40511
5.39101
5.37747
5.36449
5.35207
5.34021
5.3289
5.31814
5.30794
5.29828
5.28917
5.28061
5.27259
5.26511
5.25817
5.25177
5.24591
5.24059
5.2358
5.23155
5.22784
5.22465
5.222
5.21988
5.2183
5.21724
5.21672
8.74912
8.67433
8.60085
8.52863
8.45765
8.38788
8.31931
8.25193
8.18571
8.12064
8.05669
7.99386
7.93213
7.87147
7.81188
7.75334
7.69584
7.63935
7.58388
7.52939
7.47589
7.42336
7.37178
7.32114
7.27144
7.22265
7.17477
7.12779
7.0817
7.03647
6.99212
6.94861
6.90596
6.86413
6.82314
6.78296
6.74358
6.70501
6.66722
6.63022
6.594
6.55853
6.52383
6.48988
6.45667
6.4242
6.39246
6.36144
6.33114
6.30156
6.27267
6.24448
6.21699
6.19019
6.16406
6.13861
6.11384
6.08973
6.06628
6.04349
6.02135
5.99986
5.97901
5.95881
5.93923
5.9203
5.90198
5.8843
5.86723
5.85079
5.83495
5.81973
5.80512
5.79112
5.77772
5.76492
5.75271
5.74111
5.7301
5.71968
5.70985
5.70061
5.69195
5.68388
5.67639
5.66949
5.66317
5.65742
5.65226
5.64767
5.64366
5.64022
5.63736
5.63508
5.63337
5.63223
5.63167
9.39075
9.31054
9.23171
9.15424
9.0781
9.00326
8.92971
8.85743
8.78639
8.71659
8.64799
8.58059
8.51436
8.44929
8.38536
8.32256
8.26087
8.20027
8.14076
8.08231
8.02491
7.96855
7.91321
7.85888
7.80555
7.75321
7.70184
7.65144
7.60198
7.55346
7.50587
7.45919
7.41342
7.36855
7.32456
7.28145
7.2392
7.19781
7.15727
7.11757
7.0787
7.04065
7.00341
6.96698
6.93135
6.89651
6.86245
6.82917
6.79666
6.76491
6.73391
6.70367
6.67417
6.6454
6.61737
6.59006
6.56348
6.5376
6.51244
6.48799
6.46423
6.44117
6.4188
6.39711
6.37611
6.35579
6.33614
6.31716
6.29885
6.2812
6.26421
6.24788
6.2322
6.21717
6.20279
6.18905
6.17596
6.1635
6.15168
6.1405
6.12995
6.12004
6.11075
6.10209
6.09406
6.08665
6.07986
6.0737
6.06815
6.06323
6.05893
6.05524
6.05217
6.04972
6.04788
6.04666
6.04606
10.031
9.9454
9.86125
9.77855
9.69726
9.61738
9.53886
9.4617
9.38587
9.31134
9.23811
9.16616
9.09545
9.02599
8.95774
8.89069
8.82483
8.76014
8.69659
8.63419
8.57291
8.51273
8.45365
8.39565
8.33871
8.28282
8.22798
8.17416
8.12135
8.06954
8.01873
7.96889
7.92002
7.87211
7.82514
7.7791
7.73399
7.6898
7.64651
7.60411
7.56261
7.52198
7.48221
7.44331
7.40526
7.36806
7.33169
7.29615
7.26143
7.22753
7.19443
7.16213
7.13063
7.09991
7.06997
7.04081
7.01242
6.98479
6.95792
6.93181
6.90644
6.88181
6.85792
6.83476
6.81234
6.79063
6.76965
6.74938
6.72982
6.71097
6.69283
6.67539
6.65864
6.64259
6.62723
6.61256
6.59858
6.58528
6.57266
6.56072
6.54946
6.53886
6.52895
6.5197
6.51112
6.50321
6.49596
6.48938
6.48346
6.4782
6.4736
6.46966
6.46638
6.46376
6.4618
6.4605
6.45985
10.6697
10.5788
10.4894
10.4015
10.3151
10.2301
10.1467
10.0647
9.98405
9.90483
9.82699
9.7505
9.67534
9.60149
9.52894
9.45766
9.38764
9.31887
9.25132
9.18498
9.11982
9.05585
8.99304
8.93137
8.87084
8.81142
8.75311
8.69589
8.63974
8.58466
8.53063
8.47765
8.42569
8.37474
8.3248
8.27585
8.22789
8.1809
8.13487
8.08979
8.04566
8.00246
7.96018
7.91881
7.87836
7.83879
7.80012
7.76233
7.72541
7.68936
7.65417
7.61982
7.58632
7.55366
7.52183
7.49082
7.46063
7.43125
7.40268
7.3749
7.34793
7.32174
7.29633
7.27171
7.24786
7.22478
7.20246
7.18091
7.16011
7.14007
7.12077
7.10223
7.08442
7.06735
7.05102
7.03542
7.02055
7.0064
6.99298
6.98028
6.96831
6.95704
6.94649
6.93666
6.92754
6.91912
6.91141
6.90441
6.89812
6.89253
6.88764
6.88345
6.87996
6.87718
6.87509
6.8737
6.87301
11.307
11.2107
11.116
11.0229
10.9314
10.8415
10.7531
10.6662
10.5809
10.497
10.4145
10.3335
10.2539
10.1757
10.0989
10.0234
9.94924
9.8764
9.80486
9.73459
9.66559
9.59783
9.5313
9.46599
9.40187
9.33894
9.27717
9.21656
9.1571
9.09875
9.04152
8.9854
8.93036
8.87639
8.82349
8.77165
8.72084
8.67106
8.6223
8.57455
8.5278
8.48204
8.43725
8.39343
8.35057
8.30866
8.2677
8.22766
8.18855
8.15036
8.11308
8.0767
8.04121
8.0066
7.97288
7.94003
7.90805
7.87692
7.84665
7.81723
7.78865
7.7609
7.73399
7.7079
7.68263
7.65818
7.63454
7.6117
7.58967
7.56844
7.548
7.52834
7.50948
7.4914
7.47409
7.45756
7.44181
7.42682
7.41261
7.39915
7.38646
7.37453
7.36335
7.35293
7.34327
7.33435
7.32619
7.31877
7.3121
7.30617
7.30099
7.29656
7.29286
7.28991
7.2877
7.28623
7.2855
11.9426
11.841
11.741
11.6428
11.5462
11.4513
11.358
11.2663
11.1762
11.0877
11.0007
10.9152
10.8312
10.7486
10.6675
10.5878
10.5095
10.4327
10.3571
10.283
10.2101
10.1386
10.0684
9.99943
9.93174
9.86531
9.80011
9.73612
9.67334
9.61175
9.55134
9.49208
9.43398
9.37701
9.32116
9.26642
9.21278
9.16023
9.10875
9.05834
9.00898
8.96066
8.91338
8.86711
8.82186
8.77762
8.73436
8.69209
8.6508
8.61048
8.57111
8.5327
8.49522
8.45869
8.42308
8.3884
8.35463
8.32176
8.2898
8.25873
8.22856
8.19926
8.17084
8.1433
8.11662
8.0908
8.06583
8.04172
8.01846
7.99603
7.97445
7.9537
7.93378
7.91468
7.89641
7.87896
7.86233
7.8465
7.83149
7.81728
7.80388
7.79128
7.77948
7.76848
7.75827
7.74886
7.74023
7.7324
7.72536
7.7191
7.71363
7.70894
7.70504
7.70192
7.69958
7.69803
7.69726
12.5766
12.4695
12.3644
12.261
12.1594
12.0595
11.9614
11.8649
11.7701
11.6769
11.5853
11.4953
11.4069
11.3201
11.2347
11.1509
11.0685
10.9876
10.9081
10.83
10.7534
10.6781
10.6042
10.5316
10.4604
10.3905
10.3218
10.2545
10.1884
10.1236
10.06
9.99764
9.93648
9.87652
9.81774
9.76012
9.70366
9.64834
9.59416
9.54109
9.48914
9.43828
9.3885
9.3398
9.29217
9.2456
9.20006
9.15557
9.1121
9.06965
9.02821
8.98777
8.94833
8.90987
8.87238
8.83587
8.80032
8.76572
8.73208
8.69937
8.6676
8.63676
8.60684
8.57785
8.54976
8.52258
8.4963
8.47091
8.44642
8.42281
8.40009
8.37825
8.35727
8.33717
8.31794
8.29956
8.28205
8.26539
8.24958
8.23463
8.22052
8.20725
8.19483
8.18325
8.1725
8.16259
8.15351
8.14526
8.13784
8.13126
8.12549
8.12056
8.11645
8.11317
8.11071
8.10907
8.10825
13.2086
13.0963
12.986
12.8775
12.7708
12.666
12.563
12.4618
12.3623
12.2645
12.1684
12.074
11.9812
11.89
11.8004
11.7124
11.626
11.5411
11.4576
11.3757
11.2953
11.2163
11.1387
11.0625
10.9877
10.9143
10.8423
10.7716
10.7023
10.6342
10.5675
10.502
10.4378
10.3749
10.3132
10.2527
10.1934
10.1353
10.0785
10.0228
9.96822
9.91482
9.86257
9.81145
9.76144
9.71255
9.66475
9.61804
9.5724
9.52784
9.48433
9.44188
9.40047
9.36009
9.32074
9.2824
9.24508
9.20876
9.17343
9.13909
9.10574
9.07336
9.04195
9.0115
8.98201
8.95347
8.92588
8.89923
8.87352
8.84873
8.82487
8.80194
8.77992
8.75881
8.73862
8.71932
8.70094
8.68344
8.66685
8.65114
8.63633
8.6224
8.60936
8.59719
8.58591
8.5755
8.56597
8.55731
8.54952
8.5426
8.53655
8.53137
8.52706
8.52361
8.52102
8.5193
8.51845
13.8388
13.7212
13.6057
13.4921
13.3805
13.2708
13.163
13.057
12.9528
12.8504
12.7498
12.651
12.5538
12.4584
12.3646
12.2725
12.182
12.0931
12.0057
11.9199
11.8357
11.753
11.6718
11.592
11.5137
11.4369
11.3615
11.2875
11.2148
11.1436
11.0737
11.0051
10.9379
10.872
10.8074
10.744
10.682
10.6212
10.5616
10.5033
10.4462
10.3902
10.3355
10.282
10.2296
10.1784
10.1284
10.0794
10.0317
9.98498
9.93942
9.89496
9.85159
9.8093
9.76809
9.72794
9.68885
9.65081
9.61381
9.57785
9.54292
9.509
9.47611
9.44422
9.41333
9.38344
9.35454
9.32663
9.2997
9.27374
9.24875
9.22473
9.20167
9.17956
9.15841
9.1382
9.11894
9.10062
9.08324
9.06679
9.05127
9.03668
9.02302
9.01028
8.99846
8.98756
8.97757
8.9685
8.96035
8.9531
8.94676
8.94133
8.93681
8.9332
8.93049
8.92868
8.92779
14.4669
14.3442
14.2235
14.1049
13.9883
13.8737
13.7611
13.6504
13.5416
13.4346
13.3296
13.2263
13.1248
13.0251
12.9272
12.8309
12.7364
12.6435
12.5523
12.4627
12.3747
12.2882
12.2034
12.1201
12.0383
11.958
11.8792
11.8019
11.726
11.6516
11.5786
11.5069
11.4367
11.3678
11.3003
11.2342
11.1693
11.1058
11.0435
10.9826
10.9229
10.8645
10.8073
10.7514
10.6967
10.6432
10.5909
10.5397
10.4898
10.441
10.3934
10.347
10.3016
10.2575
10.2144
10.1724
10.1316
10.0918
10.0532
10.0156
9.97909
9.94365
9.90927
9.87595
9.84367
9.81244
9.78224
9.75307
9.72492
9.69779
9.67168
9.64657
9.62247
9.59937
9.57727
9.55615
9.53602
9.51688
9.49871
9.48152
9.4653
9.45006
9.43578
9.42246
9.41011
9.39872
9.38828
9.3788
9.37027
9.3627
9.35607
9.3504
9.34567
9.34189
9.33906
9.33718
9.33624
15.0929
14.965
14.8392
14.7156
14.5941
14.4747
14.3573
14.2419
14.1285
14.017
13.9075
13.7998
13.6941
13.5901
13.488
13.3877
13.2891
13.1923
13.0972
13.0038
12.912
12.822
12.7335
12.6466
12.5614
12.4777
12.3955
12.3149
12.2358
12.1582
12.0821
12.0074
11.9342
11.8624
11.792
11.723
11.6554
11.5891
11.5242
11.4607
11.3984
11.3375
11.2779
11.2196
11.1625
11.1067
11.0522
10.9989
10.9468
10.8959
10.8463
10.7978
10.7506
10.7045
10.6596
10.6158
10.5732
10.5318
10.4915
10.4523
10.4142
10.3773
10.3414
10.3066
10.273
10.2404
10.2089
10.1785
10.1491
10.1208
10.0936
10.0674
10.0423
10.0182
9.99515
9.97313
9.95213
9.93217
9.91322
9.89529
9.87838
9.86248
9.84758
9.8337
9.82081
9.80893
9.79804
9.78815
9.77926
9.77136
9.76445
9.75853
9.7536
9.74966
9.7467
9.74474
9.74376
15.7167
15.5837
15.4529
15.3243
15.1978
15.0736
14.9515
14.8314
14.7134
14.5975
14.4835
14.3715
14.2615
14.1533
14.0471
13.9427
13.8401
13.7394
13.6404
13.5432
13.4478
13.354
13.262
13.1716
13.0829
12.9958
12.9103
12.8264
12.7441
12.6633
12.5841
12.5064
12.4302
12.3555
12.2822
12.2104
12.14
12.0711
12.0036
11.9374
11.8726
11.8092
11.7472
11.6865
11.6271
11.569
11.5123
11.4568
11.4026
11.3497
11.298
11.2475
11.1984
11.1504
11.1036
11.0581
11.0138
10.9706
10.9286
10.8879
10.8482
10.8098
10.7724
10.7363
10.7012
10.6673
10.6345
10.6029
10.5723
10.5429
10.5145
10.4873
10.4611
10.436
10.412
10.3891
10.3672
10.3464
10.3267
10.3081
10.2905
10.2739
10.2584
10.2439
10.2305
10.2182
10.2068
10.1965
10.1873
10.179
10.1718
10.1657
10.1606
10.1564
10.1534
10.1513
10.1503
16.3383
16.2002
16.0643
15.9307
15.7995
15.6704
15.5436
15.4189
15.2964
15.1759
15.0576
14.9413
14.827
14.7147
14.6043
14.4959
14.3894
14.2847
14.1819
14.081
13.9818
13.8845
13.7888
13.695
13.6028
13.5123
13.4235
13.3364
13.2509
13.167
13.0846
13.0039
12.9247
12.8471
12.771
12.6964
12.6233
12.5517
12.4815
12.4128
12.3455
12.2796
12.2152
12.1521
12.0904
12.0301
11.9711
11.9134
11.8571
11.8021
11.7484
11.696
11.6449
11.5951
11.5465
11.4992
11.4531
11.4083
11.3647
11.3223
11.2811
11.2411
11.2024
11.1648
11.1284
11.0931
11.059
11.0261
10.9944
10.9638
10.9343
10.906
10.8788
10.8528
10.8278
10.804
10.7813
10.7597
10.7392
10.7198
10.7015
10.6843
10.6682
10.6531
10.6392
10.6264
10.6146
10.6039
10.5943
10.5857
10.5782
10.5718
10.5665
10.5622
10.559
10.5569
10.5558
16.9576
16.8143
16.6734
16.535
16.3989
16.2651
16.1335
16.0043
15.8772
15.7524
15.6296
15.509
15.3905
15.274
15.1596
15.0472
14.9367
14.8282
14.7216
14.6169
14.5141
14.4131
14.314
14.2166
14.121
14.0272
13.9351
13.8447
13.756
13.669
13.5836
13.4999
13.4178
13.3373
13.2583
13.1809
13.1051
13.0308
12.958
12.8868
12.817
12.7486
12.6818
12.6163
12.5523
12.4897
12.4286
12.3688
12.3103
12.2533
12.1976
12.1432
12.0902
12.0385
11.9881
11.939
11.8912
11.8447
11.7995
11.7555
11.7128
11.6713
11.6311
11.5921
11.5543
11.5178
11.4824
11.4483
11.4153
11.3836
11.353
11.3236
11.2954
11.2684
11.2425
11.2178
11.1942
11.1718
11.1505
11.1304
11.1114
11.0936
11.0769
11.0613
11.0468
11.0335
11.0213
11.0102
11.0002
10.9913
10.9835
10.9769
10.9714
10.9669
10.9636
10.9614
10.9603
17.5743
17.426
17.2802
17.1369
16.9959
16.8574
16.7213
16.5875
16.4559
16.3266
16.1996
16.0747
15.952
15.8314
15.7129
15.5965
15.4821
15.3698
15.2594
15.151
15.0445
14.94
14.8373
14.7365
14.6375
14.5403
14.4449
14.3513
14.2595
14.1694
14.081
13.9943
13.9092
13.8258
13.7441
13.6639
13.5854
13.5085
13.4331
13.3593
13.287
13.2162
13.1469
13.0792
13.0129
12.948
12.8847
12.8227
12.7622
12.7031
12.6454
12.5891
12.5342
12.4806
12.4284
12.3776
12.3281
12.2799
12.233
12.1875
12.1432
12.1003
12.0586
12.0182
11.9791
11.9412
11.9046
11.8692
11.8351
11.8022
11.7705
11.7401
11.7109
11.6829
11.656
11.6304
11.606
11.5828
11.5608
11.5399
11.5203
11.5018
11.4844
11.4683
11.4533
11.4395
11.4268
11.4153
11.405
11.3958
11.3878
11.3809
11.3751
11.3705
11.3671
11.3648
11.3637
18.9955
18.8287
18.6646
18.5032
18.3445
18.1886
18.0352
17.8845
17.7363
17.5906
17.4475
17.3067
17.1683
17.0324
16.8987
16.7673
16.6382
16.5114
16.3867
16.2642
16.1438
16.0256
15.9094
15.7953
15.6832
15.5731
15.4649
15.3588
15.2545
15.1521
15.0517
14.953
14.8562
14.7613
14.6681
14.5766
14.487
14.399
14.3128
14.2282
14.1453
14.0641
13.9845
13.9066
13.8302
13.7554
13.6822
13.6106
13.5405
13.4719
13.4049
13.3393
13.2753
13.2127
13.1515
13.0919
13.0336
12.9768
12.9214
12.8674
12.8148
12.7636
12.7138
12.6653
12.6182
12.5724
12.5279
12.4848
12.443
12.4026
12.3634
12.3255
12.2889
12.2536
12.2196
12.1868
12.1553
12.1251
12.0961
12.0684
12.0419
12.0166
11.9926
11.9698
11.9483
11.9279
11.9088
11.8909
11.8742
11.8586
11.8443
11.8313
11.8193
11.8086
11.7991
11.7908
11.7837
11.7778
11.773
11.7695
11.7671
11.7659
19.6331
19.4609
19.2915
19.1249
18.9612
18.8002
18.6419
18.4863
18.3333
18.1829
18.035
17.8897
17.7469
17.6065
17.4685
17.3328
17.1995
17.0685
16.9398
16.8133
16.689
16.5669
16.4469
16.3291
16.2133
16.0996
15.988
15.8783
15.7706
15.6649
15.5612
15.4593
15.3593
15.2612
15.165
15.0706
14.9779
14.8871
14.798
14.7107
14.6251
14.5412
14.459
14.3785
14.2996
14.2223
14.1467
14.0727
14.0003
13.9295
13.8602
13.7925
13.7263
13.6617
13.5985
13.5369
13.4767
13.418
13.3608
13.305
13.2507
13.1978
13.1463
13.0962
13.0475
13.0002
12.9543
12.9098
12.8666
12.8248
12.7843
12.7451
12.7073
12.6709
12.6357
12.6019
12.5693
12.5381
12.5082
12.4795
12.4521
12.426
12.4012
12.3777
12.3554
12.3344
12.3146
12.2961
12.2788
12.2628
12.248
12.2345
12.2222
12.2111
12.2013
12.1927
12.1853
12.1792
12.1743
12.1706
12.1682
12.1669
20.2679
20.0902
19.9156
19.7439
19.575
19.409
19.2458
19.0854
18.9276
18.7726
18.6201
18.4703
18.323
18.1782
18.0359
17.896
17.7585
17.6234
17.4907
17.3602
17.232
17.1061
16.9824
16.8608
16.7414
16.6241
16.509
16.3959
16.2848
16.1758
16.0687
15.9637
15.8606
15.7594
15.6601
15.5627
15.4671
15.3734
15.2815
15.1914
15.1031
15.0166
14.9318
14.8487
14.7673
14.6876
14.6096
14.5333
14.4586
14.3855
14.314
14.2442
14.1759
14.1092
14.044
13.9804
13.9183
13.8578
13.7987
13.7412
13.6851
13.6305
13.5774
13.5257
13.4754
13.4266
13.3793
13.3333
13.2888
13.2456
13.2038
13.1635
13.1244
13.0868
13.0505
13.0156
12.982
12.9498
12.9189
12.8893
12.8611
12.8341
12.8085
12.7842
12.7612
12.7395
12.7191
12.7
12.6822
12.6657
12.6504
12.6365
12.6238
12.6124
12.6022
12.5933
12.5857
12.5794
12.5743
12.5705
12.568
12.5668
20.8997
20.7167
20.5368
20.36
20.1861
20.0151
19.8471
19.6818
19.5193
19.3596
19.2026
19.0483
18.8966
18.7474
18.6008
18.4568
18.3152
18.176
18.0392
17.9049
17.7728
17.6431
17.5156
17.3904
17.2674
17.1466
17.0279
16.9114
16.797
16.6846
16.5743
16.4661
16.3599
16.2556
16.1533
16.0529
15.9545
15.8579
15.7632
15.6704
15.5794
15.4902
15.4028
15.3172
15.2334
15.1512
15.0709
14.9922
14.9152
14.8399
14.7662
14.6942
14.6239
14.5551
14.488
14.4224
14.3584
14.296
14.2351
14.1758
14.118
14.0618
14.007
13.9537
13.902
13.8517
13.8028
13.7555
13.7095
13.6651
13.622
13.5804
13.5402
13.5014
13.464
13.428
13.3934
13.3601
13.3283
13.2978
13.2687
13.2409
13.2145
13.1895
13.1658
13.1434
13.1224
13.1027
13.0843
13.0673
13.0516
13.0372
13.0241
13.0123
13.0019
12.9927
12.9849
12.9783
12.9731
12.9692
12.9666
12.9653
21.5283
21.34
21.155
20.9731
20.7942
20.6183
20.4454
20.2754
20.1083
19.944
19.7825
19.6237
19.4676
19.3141
19.1633
19.0151
18.8694
18.7262
18.5854
18.4472
18.3113
18.1778
18.0466
17.9177
17.7912
17.6668
17.5447
17.4248
17.307
17.1914
17.0779
16.9665
16.8572
16.7499
16.6446
16.5413
16.4399
16.3405
16.2431
16.1475
16.0539
15.962
15.8721
15.784
15.6976
15.6131
15.5304
15.4494
15.3701
15.2926
15.2168
15.1427
15.0702
14.9994
14.9303
14.8628
14.7969
14.7327
14.67
14.609
14.5495
14.4915
14.4351
14.3803
14.327
14.2752
14.2249
14.1762
14.1289
14.0831
14.0387
13.9959
13.9545
13.9145
13.876
13.839
13.8033
13.7691
13.7363
13.7049
13.675
13.6464
13.6192
13.5934
13.569
13.546
13.5243
13.504
13.4851
13.4676
13.4514
13.4365
13.4231
13.411
13.4002
13.3908
13.3827
13.376
13.3706
13.3666
13.3639
13.3625
22.1535
21.9602
21.7701
21.5831
21.3993
21.2186
21.0409
20.8662
20.6945
20.5256
20.3596
20.1964
20.0359
19.8782
19.7232
19.5708
19.421
19.2739
19.1292
18.987
18.8474
18.7101
18.5753
18.4428
18.3127
18.1849
18.0593
17.936
17.815
17.6961
17.5794
17.4649
17.3524
17.2421
17.1338
17.0276
16.9234
16.8212
16.721
16.6228
16.5264
16.432
16.3395
16.2489
16.1602
16.0732
15.9881
15.9048
15.8233
15.7436
15.6656
15.5894
15.5149
15.4421
15.371
15.3016
15.2339
15.1678
15.1033
15.0405
14.9793
14.9197
14.8617
14.8053
14.7505
14.6972
14.6455
14.5954
14.5467
14.4996
14.454
14.4099
14.3674
14.3263
14.2867
14.2485
14.2119
14.1767
14.1429
14.1107
14.0798
14.0504
14.0225
13.9959
13.9708
13.9471
13.9248
13.904
13.8845
13.8665
13.8498
13.8346
13.8207
13.8082
13.7972
13.7875
13.7792
13.7723
13.7667
13.7626
13.7598
13.7584
22.7755
22.5771
22.382
22.1901
22.0014
21.8158
21.6334
21.454
21.2777
21.1043
20.9339
20.7663
20.6015
20.4396
20.2804
20.1239
19.9702
19.819
19.6705
19.5245
19.381
19.2401
19.1016
18.9655
18.8319
18.7006
18.5717
18.4451
18.3207
18.1986
18.0788
17.9611
17.8456
17.7323
17.6211
17.512
17.4049
17.2999
17.197
17.0961
16.9971
16.9001
16.8051
16.712
16.6208
16.5315
16.4441
16.3585
16.2748
16.1929
16.1127
16.0344
15.9579
15.8831
15.81
15.7387
15.6691
15.6012
15.535
15.4704
15.4076
15.3463
15.2868
15.2288
15.1725
15.1177
15.0646
15.013
14.963
14.9146
14.8678
14.8225
14.7787
14.7365
14.6958
14.6566
14.619
14.5828
14.5481
14.5149
14.4832
14.453
14.4243
14.397
14.3712
14.3469
14.324
14.3025
14.2825
14.264
14.2469
14.2312
14.217
14.2041
14.1928
14.1828
14.1743
14.1672
14.1615
14.1572
14.1544
14.153
23.3942
23.1907
22.9906
22.7938
22.6003
22.41
22.2229
22.0389
21.858
21.6801
21.5053
21.3334
21.1644
20.9983
20.8349
20.6744
20.5166
20.3616
20.2092
20.0594
19.9122
19.7676
19.6255
19.4859
19.3487
19.214
19.0817
18.9518
18.8242
18.6989
18.5759
18.4552
18.3366
18.2203
18.1062
17.9942
17.8844
17.7766
17.671
17.5674
17.4658
17.3663
17.2687
17.1732
17.0796
16.9879
16.8982
16.8103
16.7244
16.6403
16.5581
16.4777
16.3991
16.3223
16.2473
16.1741
16.1027
16.033
15.965
15.8987
15.8342
15.7713
15.7101
15.6506
15.5928
15.5366
15.482
15.4291
15.3778
15.3281
15.28
15.2335
15.1886
15.1452
15.1034
15.0632
15.0245
14.9874
14.9518
14.9177
14.8852
14.8542
14.8247
14.7967
14.7702
14.7452
14.7217
14.6996
14.6791
14.6601
14.6425
14.6264
14.6118
14.5986
14.5869
14.5767
14.5679
14.5607
14.5548
14.5504
14.5475
14.5461
24.0096
23.8009
23.5959
23.3942
23.1959
23.0009
22.8092
22.6206
22.4352
22.253
22.0738
21.8976
21.7244
21.5541
21.3867
21.2221
21.0604
20.9015
20.7452
20.5917
20.4408
20.2925
20.1469
20.0038
19.8632
19.7251
19.5894
19.4562
19.3254
19.1969
19.0708
18.947
18.8255
18.7062
18.5892
18.4744
18.3617
18.2512
18.1429
18.0367
17.9325
17.8304
17.7304
17.6324
17.5364
17.4424
17.3504
17.2603
17.1722
17.0859
17.0016
16.9191
16.8385
16.7598
16.6829
16.6078
16.5345
16.463
16.3933
16.3253
16.2591
16.1946
16.1319
16.0708
16.0115
15.9539
15.8979
15.8436
15.791
15.74
15.6907
15.6429
15.5969
15.5524
15.5095
15.4682
15.4286
15.3905
15.354
15.319
15.2856
15.2538
15.2235
15.1948
15.1676
15.142
15.1179
15.0953
15.0742
15.0547
15.0366
15.0201
15.0051
14.9916
14.9796
14.9692
14.9602
14.9527
14.9467
14.9422
14.9392
14.9377
24.6215
24.4077
24.1978
23.9913
23.7883
23.5886
23.3923
23.1992
23.0094
22.8228
22.6392
22.4588
22.2814
22.107
21.9356
21.7671
21.6014
21.4386
21.2786
21.1214
20.9668
20.815
20.6657
20.5191
20.3751
20.2337
20.0947
19.9582
19.8242
19.6926
19.5634
19.4366
19.3121
19.1899
19.07
18.9523
18.8369
18.7237
18.6127
18.5039
18.3972
18.2926
18.1901
18.0897
17.9913
17.895
17.8007
17.7083
17.618
17.5296
17.4432
17.3587
17.2761
17.1954
17.1166
17.0396
16.9645
16.8913