/*--------------------------------*- C++ -*----------------------------------*\
  =========                 |
  \\      /  F ield         | OpenFOAM: The Open Source CFD Toolbox
   \\    /   O peration     | Website:  https://openfoam.org
    \\  /    A nd           | Version:  7
     \\/     M anipulation  |
\*---------------------------------------------------------------------------*/
FoamFile
{
    version     2.0;
    format      ascii;
    class       volScalarField;
    location    "4e-13";
    object      ne;
}
// * * * * * * * * * * * * * * * * * * * * * * * * * * * * * * * * * * * * * //

dimensions      [0 -3 0 0 0 0 0];

internalField   nonuniform List<scalar> 
15066
(
1.00502e+13
1.00502e+13
1.00502e+13
1.00502e+13
1.00503e+13
1.00503e+13
1.00504e+13
1.00505e+13
1.00506e+13
1.00507e+13
1.00508e+13
1.00509e+13
1.0051e+13
1.00512e+13
1.00513e+13
1.00515e+13
1.00517e+13
1.00518e+13
1.00521e+13
1.00523e+13
1.00525e+13
1.00527e+13
1.0053e+13
1.00533e+13
1.00535e+13
1.00538e+13
1.00541e+13
1.00545e+13
1.00548e+13
1.00552e+13
1.00555e+13
1.00559e+13
1.00563e+13
1.00567e+13
1.00572e+13
1.00576e+13
1.00581e+13
1.00586e+13
1.00591e+13
1.00597e+13
1.00602e+13
1.00608e+13
1.00614e+13
1.00621e+13
1.00627e+13
1.00634e+13
1.00641e+13
1.00649e+13
1.00656e+13
1.00664e+13
1.00673e+13
1.00681e+13
1.0069e+13
1.007e+13
1.0071e+13
1.0072e+13
1.00731e+13
1.00742e+13
1.00754e+13
1.00766e+13
1.00779e+13
1.00793e+13
1.00807e+13
1.00822e+13
1.00837e+13
1.00854e+13
1.00871e+13
1.00889e+13
1.00909e+13
1.00929e+13
1.00951e+13
1.00973e+13
1.00998e+13
1.01023e+13
1.01051e+13
1.0108e+13
1.01112e+13
1.01145e+13
1.01181e+13
1.0122e+13
1.01263e+13
1.01308e+13
1.01358e+13
1.01412e+13
1.01472e+13
1.01537e+13
1.01608e+13
1.01688e+13
1.01775e+13
1.01872e+13
1.01979e+13
1.02095e+13
1.0222e+13
1.02353e+13
1.02491e+13
1.02632e+13
1.0277e+13
1.02902e+13
1.02987e+13
1.02968e+13
1.00501e+13
1.00502e+13
1.00502e+13
1.00502e+13
1.00502e+13
1.00503e+13
1.00504e+13
1.00504e+13
1.00505e+13
1.00506e+13
1.00507e+13
1.00509e+13
1.0051e+13
1.00511e+13
1.00513e+13
1.00514e+13
1.00516e+13
1.00518e+13
1.0052e+13
1.00522e+13
1.00525e+13
1.00527e+13
1.0053e+13
1.00532e+13
1.00535e+13
1.00538e+13
1.00541e+13
1.00544e+13
1.00548e+13
1.00551e+13
1.00555e+13
1.00559e+13
1.00563e+13
1.00567e+13
1.00571e+13
1.00576e+13
1.00581e+13
1.00586e+13
1.00591e+13
1.00596e+13
1.00602e+13
1.00608e+13
1.00614e+13
1.0062e+13
1.00627e+13
1.00633e+13
1.00641e+13
1.00648e+13
1.00656e+13
1.00664e+13
1.00672e+13
1.00681e+13
1.0069e+13
1.00699e+13
1.00709e+13
1.00719e+13
1.0073e+13
1.00741e+13
1.00753e+13
1.00765e+13
1.00778e+13
1.00792e+13
1.00806e+13
1.00821e+13
1.00836e+13
1.00852e+13
1.0087e+13
1.00888e+13
1.00907e+13
1.00927e+13
1.00949e+13
1.00971e+13
1.00995e+13
1.01021e+13
1.01048e+13
1.01077e+13
1.01108e+13
1.01141e+13
1.01177e+13
1.01215e+13
1.01256e+13
1.01301e+13
1.0135e+13
1.01402e+13
1.0146e+13
1.01523e+13
1.01591e+13
1.01667e+13
1.01749e+13
1.01839e+13
1.01938e+13
1.02043e+13
1.02154e+13
1.0227e+13
1.02388e+13
1.02505e+13
1.02612e+13
1.02702e+13
1.0277e+13
1.028e+13
1.00501e+13
1.00501e+13
1.00501e+13
1.00502e+13
1.00502e+13
1.00503e+13
1.00503e+13
1.00504e+13
1.00505e+13
1.00506e+13
1.00507e+13
1.00508e+13
1.00509e+13
1.00511e+13
1.00512e+13
1.00514e+13
1.00516e+13
1.00518e+13
1.0052e+13
1.00522e+13
1.00524e+13
1.00527e+13
1.00529e+13
1.00532e+13
1.00535e+13
1.00538e+13
1.00541e+13
1.00544e+13
1.00547e+13
1.00551e+13
1.00554e+13
1.00558e+13
1.00562e+13
1.00567e+13
1.00571e+13
1.00575e+13
1.0058e+13
1.00585e+13
1.0059e+13
1.00596e+13
1.00601e+13
1.00607e+13
1.00613e+13
1.00619e+13
1.00626e+13
1.00633e+13
1.0064e+13
1.00647e+13
1.00655e+13
1.00663e+13
1.00671e+13
1.0068e+13
1.00689e+13
1.00698e+13
1.00708e+13
1.00718e+13
1.00729e+13
1.0074e+13
1.00752e+13
1.00764e+13
1.00777e+13
1.0079e+13
1.00804e+13
1.00819e+13
1.00835e+13
1.00851e+13
1.00868e+13
1.00886e+13
1.00905e+13
1.00925e+13
1.00946e+13
1.00969e+13
1.00992e+13
1.01018e+13
1.01045e+13
1.01073e+13
1.01104e+13
1.01137e+13
1.01172e+13
1.01209e+13
1.0125e+13
1.01294e+13
1.01341e+13
1.01392e+13
1.01448e+13
1.01509e+13
1.01575e+13
1.01647e+13
1.01726e+13
1.01811e+13
1.01903e+13
1.02001e+13
1.02103e+13
1.02208e+13
1.02315e+13
1.02419e+13
1.02513e+13
1.0259e+13
1.02641e+13
1.0266e+13
1.00501e+13
1.00501e+13
1.00501e+13
1.00501e+13
1.00502e+13
1.00502e+13
1.00503e+13
1.00504e+13
1.00504e+13
1.00505e+13
1.00506e+13
1.00508e+13
1.00509e+13
1.0051e+13
1.00512e+13
1.00514e+13
1.00515e+13
1.00517e+13
1.00519e+13
1.00521e+13
1.00524e+13
1.00526e+13
1.00529e+13
1.00531e+13
1.00534e+13
1.00537e+13
1.0054e+13
1.00543e+13
1.00547e+13
1.0055e+13
1.00554e+13
1.00558e+13
1.00562e+13
1.00566e+13
1.0057e+13
1.00575e+13
1.0058e+13
1.00584e+13
1.0059e+13
1.00595e+13
1.00601e+13
1.00606e+13
1.00612e+13
1.00619e+13
1.00625e+13
1.00632e+13
1.00639e+13
1.00646e+13
1.00654e+13
1.00662e+13
1.0067e+13
1.00679e+13
1.00688e+13
1.00697e+13
1.00707e+13
1.00717e+13
1.00728e+13
1.00739e+13
1.00751e+13
1.00763e+13
1.00775e+13
1.00789e+13
1.00803e+13
1.00817e+13
1.00833e+13
1.00849e+13
1.00866e+13
1.00884e+13
1.00902e+13
1.00922e+13
1.00943e+13
1.00965e+13
1.00989e+13
1.01014e+13
1.0104e+13
1.01068e+13
1.01098e+13
1.01131e+13
1.01165e+13
1.01202e+13
1.01241e+13
1.01284e+13
1.0133e+13
1.01379e+13
1.01433e+13
1.01491e+13
1.01554e+13
1.01622e+13
1.01696e+13
1.01776e+13
1.0186e+13
1.01949e+13
1.02041e+13
1.02134e+13
1.02226e+13
1.02315e+13
1.02394e+13
1.02457e+13
1.02499e+13
1.02517e+13
1.005e+13
1.005e+13
1.005e+13
1.00501e+13
1.00501e+13
1.00502e+13
1.00502e+13
1.00503e+13
1.00504e+13
1.00505e+13
1.00506e+13
1.00507e+13
1.00508e+13
1.0051e+13
1.00511e+13
1.00513e+13
1.00515e+13
1.00517e+13
1.00519e+13
1.00521e+13
1.00523e+13
1.00525e+13
1.00528e+13
1.00531e+13
1.00533e+13
1.00536e+13
1.00539e+13
1.00543e+13
1.00546e+13
1.00549e+13
1.00553e+13
1.00557e+13
1.00561e+13
1.00565e+13
1.00569e+13
1.00574e+13
1.00579e+13
1.00584e+13
1.00589e+13
1.00594e+13
1.006e+13
1.00605e+13
1.00611e+13
1.00618e+13
1.00624e+13
1.00631e+13
1.00638e+13
1.00645e+13
1.00653e+13
1.00661e+13
1.00669e+13
1.00678e+13
1.00686e+13
1.00696e+13
1.00706e+13
1.00716e+13
1.00726e+13
1.00737e+13
1.00749e+13
1.00761e+13
1.00773e+13
1.00787e+13
1.008e+13
1.00815e+13
1.0083e+13
1.00846e+13
1.00863e+13
1.0088e+13
1.00899e+13
1.00919e+13
1.00939e+13
1.00961e+13
1.00984e+13
1.01009e+13
1.01035e+13
1.01062e+13
1.01092e+13
1.01123e+13
1.01157e+13
1.01193e+13
1.01231e+13
1.01272e+13
1.01316e+13
1.01364e+13
1.01415e+13
1.01471e+13
1.0153e+13
1.01594e+13
1.01663e+13
1.01736e+13
1.01814e+13
1.01894e+13
1.01976e+13
1.02057e+13
1.02137e+13
1.02214e+13
1.02282e+13
1.02335e+13
1.0237e+13
1.02385e+13
1.00499e+13
1.00499e+13
1.005e+13
1.005e+13
1.005e+13
1.00501e+13
1.00501e+13
1.00502e+13
1.00503e+13
1.00504e+13
1.00505e+13
1.00506e+13
1.00508e+13
1.00509e+13
1.00511e+13
1.00512e+13
1.00514e+13
1.00516e+13
1.00518e+13
1.0052e+13
1.00522e+13
1.00525e+13
1.00527e+13
1.0053e+13
1.00533e+13
1.00535e+13
1.00538e+13
1.00542e+13
1.00545e+13
1.00549e+13
1.00552e+13
1.00556e+13
1.0056e+13
1.00564e+13
1.00569e+13
1.00573e+13
1.00578e+13
1.00583e+13
1.00588e+13
1.00593e+13
1.00599e+13
1.00604e+13
1.0061e+13
1.00616e+13
1.00623e+13
1.0063e+13
1.00637e+13
1.00644e+13
1.00651e+13
1.00659e+13
1.00667e+13
1.00676e+13
1.00685e+13
1.00694e+13
1.00704e+13
1.00714e+13
1.00724e+13
1.00735e+13
1.00747e+13
1.00759e+13
1.00771e+13
1.00784e+13
1.00798e+13
1.00812e+13
1.00827e+13
1.00843e+13
1.0086e+13
1.00877e+13
1.00895e+13
1.00914e+13
1.00935e+13
1.00956e+13
1.00979e+13
1.01003e+13
1.01028e+13
1.01055e+13
1.01084e+13
1.01115e+13
1.01147e+13
1.01182e+13
1.01219e+13
1.01259e+13
1.01301e+13
1.01347e+13
1.01395e+13
1.01448e+13
1.01503e+13
1.01563e+13
1.01627e+13
1.01694e+13
1.01764e+13
1.01836e+13
1.01909e+13
1.0198e+13
1.02049e+13
1.02115e+13
1.02173e+13
1.02219e+13
1.02249e+13
1.02263e+13
1.00498e+13
1.00499e+13
1.00499e+13
1.00499e+13
1.005e+13
1.005e+13
1.00501e+13
1.00501e+13
1.00502e+13
1.00503e+13
1.00504e+13
1.00505e+13
1.00507e+13
1.00508e+13
1.0051e+13
1.00511e+13
1.00513e+13
1.00515e+13
1.00517e+13
1.00519e+13
1.00521e+13
1.00524e+13
1.00526e+13
1.00529e+13
1.00532e+13
1.00534e+13
1.00538e+13
1.00541e+13
1.00544e+13
1.00548e+13
1.00551e+13
1.00555e+13
1.00559e+13
1.00563e+13
1.00567e+13
1.00572e+13
1.00577e+13
1.00581e+13
1.00587e+13
1.00592e+13
1.00597e+13
1.00603e+13
1.00609e+13
1.00615e+13
1.00622e+13
1.00628e+13
1.00635e+13
1.00642e+13
1.0065e+13
1.00658e+13
1.00666e+13
1.00674e+13
1.00683e+13
1.00692e+13
1.00702e+13
1.00712e+13
1.00722e+13
1.00733e+13
1.00744e+13
1.00756e+13
1.00768e+13
1.00781e+13
1.00795e+13
1.00809e+13
1.00824e+13
1.00839e+13
1.00856e+13
1.00873e+13
1.00891e+13
1.0091e+13
1.0093e+13
1.00951e+13
1.00973e+13
1.00996e+13
1.01021e+13
1.01048e+13
1.01075e+13
1.01105e+13
1.01137e+13
1.0117e+13
1.01206e+13
1.01244e+13
1.01284e+13
1.01327e+13
1.01374e+13
1.01423e+13
1.01475e+13
1.0153e+13
1.01589e+13
1.0165e+13
1.01713e+13
1.01778e+13
1.01842e+13
1.01904e+13
1.01964e+13
1.0202e+13
1.0207e+13
1.0211e+13
1.02138e+13
1.02151e+13
1.00498e+13
1.00498e+13
1.00498e+13
1.00498e+13
1.00499e+13
1.00499e+13
1.005e+13
1.005e+13
1.00501e+13
1.00502e+13
1.00503e+13
1.00505e+13
1.00506e+13
1.00507e+13
1.00509e+13
1.0051e+13
1.00512e+13
1.00514e+13
1.00516e+13
1.00518e+13
1.0052e+13
1.00523e+13
1.00525e+13
1.00528e+13
1.00531e+13
1.00533e+13
1.00536e+13
1.0054e+13
1.00543e+13
1.00546e+13
1.0055e+13
1.00554e+13
1.00558e+13
1.00562e+13
1.00566e+13
1.00571e+13
1.00575e+13
1.0058e+13
1.00585e+13
1.0059e+13
1.00596e+13
1.00602e+13
1.00607e+13
1.00614e+13
1.0062e+13
1.00627e+13
1.00633e+13
1.00641e+13
1.00648e+13
1.00656e+13
1.00664e+13
1.00672e+13
1.00681e+13
1.0069e+13
1.007e+13
1.00709e+13
1.0072e+13
1.0073e+13
1.00742e+13
1.00753e+13
1.00765e+13
1.00778e+13
1.00791e+13
1.00805e+13
1.0082e+13
1.00835e+13
1.00851e+13
1.00868e+13
1.00886e+13
1.00904e+13
1.00924e+13
1.00945e+13
1.00966e+13
1.00989e+13
1.01013e+13
1.01039e+13
1.01066e+13
1.01094e+13
1.01125e+13
1.01157e+13
1.01191e+13
1.01227e+13
1.01266e+13
1.01307e+13
1.0135e+13
1.01396e+13
1.01445e+13
1.01496e+13
1.01549e+13
1.01605e+13
1.01662e+13
1.0172e+13
1.01776e+13
1.01831e+13
1.01883e+13
1.01931e+13
1.01974e+13
1.02009e+13
1.02034e+13
1.02048e+13
1.00497e+13
1.00497e+13
1.00497e+13
1.00497e+13
1.00498e+13
1.00498e+13
1.00499e+13
1.00499e+13
1.005e+13
1.00501e+13
1.00502e+13
1.00504e+13
1.00505e+13
1.00506e+13
1.00508e+13
1.00509e+13
1.00511e+13
1.00513e+13
1.00515e+13
1.00517e+13
1.00519e+13
1.00522e+13
1.00524e+13
1.00527e+13
1.00529e+13
1.00532e+13
1.00535e+13
1.00538e+13
1.00542e+13
1.00545e+13
1.00549e+13
1.00553e+13
1.00556e+13
1.00561e+13
1.00565e+13
1.00569e+13
1.00574e+13
1.00579e+13
1.00584e+13
1.00589e+13
1.00594e+13
1.006e+13
1.00606e+13
1.00612e+13
1.00618e+13
1.00625e+13
1.00632e+13
1.00639e+13
1.00646e+13
1.00654e+13
1.00662e+13
1.0067e+13
1.00679e+13
1.00688e+13
1.00697e+13
1.00707e+13
1.00717e+13
1.00728e+13
1.00739e+13
1.0075e+13
1.00762e+13
1.00775e+13
1.00788e+13
1.00801e+13
1.00816e+13
1.00831e+13
1.00847e+13
1.00863e+13
1.0088e+13
1.00899e+13
1.00918e+13
1.00938e+13
1.00959e+13
1.00981e+13
1.01005e+13
1.01029e+13
1.01055e+13
1.01083e+13
1.01112e+13
1.01143e+13
1.01176e+13
1.0121e+13
1.01247e+13
1.01285e+13
1.01326e+13
1.01369e+13
1.01414e+13
1.01461e+13
1.0151e+13
1.0156e+13
1.01612e+13
1.01663e+13
1.01713e+13
1.01761e+13
1.01806e+13
1.01848e+13
1.01885e+13
1.01916e+13
1.01939e+13
1.01952e+13
1.00495e+13
1.00496e+13
1.00496e+13
1.00496e+13
1.00496e+13
1.00497e+13
1.00498e+13
1.00498e+13
1.00499e+13
1.005e+13
1.00501e+13
1.00502e+13
1.00504e+13
1.00505e+13
1.00507e+13
1.00508e+13
1.0051e+13
1.00512e+13
1.00514e+13
1.00516e+13
1.00518e+13
1.0052e+13
1.00523e+13
1.00525e+13
1.00528e+13
1.00531e+13
1.00534e+13
1.00537e+13
1.0054e+13
1.00544e+13
1.00547e+13
1.00551e+13
1.00555e+13
1.00559e+13
1.00563e+13
1.00568e+13
1.00572e+13
1.00577e+13
1.00582e+13
1.00587e+13
1.00593e+13
1.00598e+13
1.00604e+13
1.0061e+13
1.00616e+13
1.00623e+13
1.0063e+13
1.00637e+13
1.00644e+13
1.00651e+13
1.00659e+13
1.00668e+13
1.00676e+13
1.00685e+13
1.00694e+13
1.00704e+13
1.00714e+13
1.00724e+13
1.00735e+13
1.00747e+13
1.00758e+13
1.00771e+13
1.00784e+13
1.00797e+13
1.00811e+13
1.00826e+13
1.00841e+13
1.00858e+13
1.00874e+13
1.00892e+13
1.00911e+13
1.0093e+13
1.00951e+13
1.00972e+13
1.00995e+13
1.01019e+13
1.01044e+13
1.01071e+13
1.01099e+13
1.01128e+13
1.01159e+13
1.01192e+13
1.01227e+13
1.01263e+13
1.01301e+13
1.01341e+13
1.01382e+13
1.01426e+13
1.0147e+13
1.01516e+13
1.01562e+13
1.01608e+13
1.01652e+13
1.01695e+13
1.01734e+13
1.0177e+13
1.01802e+13
1.0183e+13
1.01851e+13
1.01864e+13
1.00494e+13
1.00494e+13
1.00495e+13
1.00495e+13
1.00495e+13
1.00496e+13
1.00496e+13
1.00497e+13
1.00498e+13
1.00499e+13
1.005e+13
1.00501e+13
1.00502e+13
1.00504e+13
1.00505e+13
1.00507e+13
1.00509e+13
1.0051e+13
1.00512e+13
1.00514e+13
1.00517e+13
1.00519e+13
1.00521e+13
1.00524e+13
1.00527e+13
1.0053e+13
1.00533e+13
1.00536e+13
1.00539e+13
1.00542e+13
1.00546e+13
1.0055e+13
1.00553e+13
1.00557e+13
1.00562e+13
1.00566e+13
1.00571e+13
1.00575e+13
1.0058e+13
1.00585e+13
1.00591e+13
1.00596e+13
1.00602e+13
1.00608e+13
1.00614e+13
1.00621e+13
1.00627e+13
1.00634e+13
1.00641e+13
1.00649e+13
1.00657e+13
1.00665e+13
1.00673e+13
1.00682e+13
1.00691e+13
1.00701e+13
1.00711e+13
1.00721e+13
1.00732e+13
1.00743e+13
1.00754e+13
1.00767e+13
1.00779e+13
1.00792e+13
1.00806e+13
1.00821e+13
1.00836e+13
1.00852e+13
1.00868e+13
1.00885e+13
1.00903e+13
1.00922e+13
1.00942e+13
1.00963e+13
1.00985e+13
1.01008e+13
1.01032e+13
1.01058e+13
1.01085e+13
1.01113e+13
1.01142e+13
1.01173e+13
1.01206e+13
1.0124e+13
1.01275e+13
1.01312e+13
1.01351e+13
1.0139e+13
1.01431e+13
1.01472e+13
1.01514e+13
1.01555e+13
1.01594e+13
1.01632e+13
1.01666e+13
1.01698e+13
1.01726e+13
1.0175e+13
1.01769e+13
1.01782e+13
1.00493e+13
1.00493e+13
1.00493e+13
1.00494e+13
1.00494e+13
1.00494e+13
1.00495e+13
1.00496e+13
1.00497e+13
1.00498e+13
1.00499e+13
1.005e+13
1.00501e+13
1.00502e+13
1.00504e+13
1.00505e+13
1.00507e+13
1.00509e+13
1.00511e+13
1.00513e+13
1.00515e+13
1.00518e+13
1.0052e+13
1.00522e+13
1.00525e+13
1.00528e+13
1.00531e+13
1.00534e+13
1.00537e+13
1.00541e+13
1.00544e+13
1.00548e+13
1.00552e+13
1.00556e+13
1.0056e+13
1.00564e+13
1.00569e+13
1.00573e+13
1.00578e+13
1.00583e+13
1.00589e+13
1.00594e+13
1.006e+13
1.00606e+13
1.00612e+13
1.00618e+13
1.00625e+13
1.00632e+13
1.00639e+13
1.00646e+13
1.00654e+13
1.00662e+13
1.0067e+13
1.00679e+13
1.00688e+13
1.00697e+13
1.00707e+13
1.00717e+13
1.00728e+13
1.00739e+13
1.0075e+13
1.00762e+13
1.00775e+13
1.00788e+13
1.00801e+13
1.00815e+13
1.0083e+13
1.00845e+13
1.00861e+13
1.00878e+13
1.00896e+13
1.00914e+13
1.00933e+13
1.00954e+13
1.00975e+13
1.00997e+13
1.0102e+13
1.01045e+13
1.0107e+13
1.01097e+13
1.01125e+13
1.01154e+13
1.01185e+13
1.01216e+13
1.0125e+13
1.01284e+13
1.01319e+13
1.01356e+13
1.01393e+13
1.0143e+13
1.01467e+13
1.01504e+13
1.01539e+13
1.01572e+13
1.01603e+13
1.01631e+13
1.01655e+13
1.01676e+13
1.01693e+13
1.01705e+13
1.00492e+13
1.00492e+13
1.00492e+13
1.00492e+13
1.00493e+13
1.00493e+13
1.00494e+13
1.00494e+13
1.00495e+13
1.00496e+13
1.00497e+13
1.00498e+13
1.005e+13
1.00501e+13
1.00502e+13
1.00504e+13
1.00506e+13
1.00508e+13
1.00509e+13
1.00511e+13
1.00514e+13
1.00516e+13
1.00518e+13
1.00521e+13
1.00524e+13
1.00526e+13
1.00529e+13
1.00532e+13
1.00536e+13
1.00539e+13
1.00542e+13
1.00546e+13
1.0055e+13
1.00554e+13
1.00558e+13
1.00562e+13
1.00567e+13
1.00571e+13
1.00576e+13
1.00581e+13
1.00587e+13
1.00592e+13
1.00598e+13
1.00603e+13
1.00609e+13
1.00616e+13
1.00622e+13
1.00629e+13
1.00636e+13
1.00644e+13
1.00651e+13
1.00659e+13
1.00667e+13
1.00676e+13
1.00685e+13
1.00694e+13
1.00703e+13
1.00713e+13
1.00724e+13
1.00735e+13
1.00746e+13
1.00757e+13
1.0077e+13
1.00782e+13
1.00795e+13
1.00809e+13
1.00824e+13
1.00839e+13
1.00854e+13
1.00871e+13
1.00888e+13
1.00905e+13
1.00924e+13
1.00944e+13
1.00964e+13
1.00985e+13
1.01007e+13
1.01031e+13
1.01055e+13
1.0108e+13
1.01107e+13
1.01134e+13
1.01163e+13
1.01193e+13
1.01224e+13
1.01255e+13
1.01288e+13
1.01321e+13
1.01355e+13
1.01389e+13
1.01423e+13
1.01456e+13
1.01487e+13
1.01517e+13
1.01544e+13
1.01568e+13
1.0159e+13
1.01608e+13
1.01623e+13
1.01633e+13
1.0049e+13
1.0049e+13
1.0049e+13
1.00491e+13
1.00491e+13
1.00492e+13
1.00492e+13
1.00493e+13
1.00494e+13
1.00495e+13
1.00496e+13
1.00497e+13
1.00498e+13
1.00499e+13
1.00501e+13
1.00502e+13
1.00504e+13
1.00506e+13
1.00508e+13
1.0051e+13
1.00512e+13
1.00514e+13
1.00517e+13
1.00519e+13
1.00522e+13
1.00525e+13
1.00528e+13
1.00531e+13
1.00534e+13
1.00537e+13
1.00541e+13
1.00544e+13
1.00548e+13
1.00552e+13
1.00556e+13
1.0056e+13
1.00565e+13
1.00569e+13
1.00574e+13
1.00579e+13
1.00584e+13
1.0059e+13
1.00595e+13
1.00601e+13
1.00607e+13
1.00613e+13
1.0062e+13
1.00626e+13
1.00633e+13
1.0064e+13
1.00648e+13
1.00656e+13
1.00664e+13
1.00672e+13
1.00681e+13
1.0069e+13
1.00699e+13
1.00709e+13
1.00719e+13
1.0073e+13
1.00741e+13
1.00752e+13
1.00764e+13
1.00777e+13
1.0079e+13
1.00803e+13
1.00817e+13
1.00832e+13
1.00847e+13
1.00863e+13
1.00879e+13
1.00896e+13
1.00914e+13
1.00933e+13
1.00953e+13
1.00973e+13
1.00994e+13
1.01017e+13
1.0104e+13
1.01064e+13
1.01089e+13
1.01115e+13
1.01142e+13
1.01169e+13
1.01198e+13
1.01227e+13
1.01257e+13
1.01288e+13
1.01319e+13
1.0135e+13
1.0138e+13
1.0141e+13
1.01438e+13
1.01464e+13
1.01488e+13
1.0151e+13
1.0153e+13
1.01546e+13
1.01559e+13
1.01568e+13
1.00488e+13
1.00489e+13
1.00489e+13
1.00489e+13
1.00489e+13
1.0049e+13
1.00491e+13
1.00491e+13
1.00492e+13
1.00493e+13
1.00494e+13
1.00495e+13
1.00496e+13
1.00498e+13
1.00499e+13
1.00501e+13
1.00502e+13
1.00504e+13
1.00506e+13
1.00508e+13
1.0051e+13
1.00512e+13
1.00515e+13
1.00517e+13
1.0052e+13
1.00523e+13
1.00526e+13
1.00529e+13
1.00532e+13
1.00535e+13
1.00539e+13
1.00542e+13
1.00546e+13
1.0055e+13
1.00554e+13
1.00558e+13
1.00562e+13
1.00567e+13
1.00572e+13
1.00577e+13
1.00582e+13
1.00587e+13
1.00593e+13
1.00598e+13
1.00604e+13
1.0061e+13
1.00617e+13
1.00623e+13
1.0063e+13
1.00637e+13
1.00645e+13
1.00652e+13
1.0066e+13
1.00669e+13
1.00677e+13
1.00686e+13
1.00695e+13
1.00705e+13
1.00715e+13
1.00725e+13
1.00736e+13
1.00747e+13
1.00759e+13
1.00771e+13
1.00783e+13
1.00796e+13
1.0081e+13
1.00824e+13
1.00839e+13
1.00854e+13
1.0087e+13
1.00887e+13
1.00904e+13
1.00922e+13
1.00941e+13
1.00961e+13
1.00981e+13
1.01002e+13
1.01024e+13
1.01047e+13
1.0107e+13
1.01095e+13
1.0112e+13
1.01146e+13
1.01173e+13
1.012e+13
1.01227e+13
1.01255e+13
1.01284e+13
1.01312e+13
1.01339e+13
1.01366e+13
1.01391e+13
1.01415e+13
1.01437e+13
1.01456e+13
1.01474e+13
1.01488e+13
1.015e+13
1.01509e+13
1.00487e+13
1.00487e+13
1.00487e+13
1.00487e+13
1.00488e+13
1.00488e+13
1.00489e+13
1.0049e+13
1.0049e+13
1.00491e+13
1.00492e+13
1.00493e+13
1.00495e+13
1.00496e+13
1.00497e+13
1.00499e+13
1.00501e+13
1.00502e+13
1.00504e+13
1.00506e+13
1.00508e+13
1.00511e+13
1.00513e+13
1.00515e+13
1.00518e+13
1.00521e+13
1.00524e+13
1.00527e+13
1.0053e+13
1.00533e+13
1.00536e+13
1.0054e+13
1.00544e+13
1.00548e+13
1.00552e+13
1.00556e+13
1.0056e+13
1.00565e+13
1.00569e+13
1.00574e+13
1.00579e+13
1.00584e+13
1.0059e+13
1.00595e+13
1.00601e+13
1.00607e+13
1.00614e+13
1.0062e+13
1.00627e+13
1.00634e+13
1.00641e+13
1.00649e+13
1.00657e+13
1.00665e+13
1.00673e+13
1.00682e+13
1.00691e+13
1.007e+13
1.0071e+13
1.0072e+13
1.00731e+13
1.00742e+13
1.00753e+13
1.00765e+13
1.00777e+13
1.0079e+13
1.00803e+13
1.00817e+13
1.00831e+13
1.00846e+13
1.00861e+13
1.00877e+13
1.00894e+13
1.00911e+13
1.00929e+13
1.00948e+13
1.00967e+13
1.00987e+13
1.01008e+13
1.0103e+13
1.01052e+13
1.01075e+13
1.01099e+13
1.01123e+13
1.01148e+13
1.01173e+13
1.01198e+13
1.01224e+13
1.0125e+13
1.01275e+13
1.013e+13
1.01325e+13
1.01348e+13
1.01369e+13
1.01388e+13
1.01406e+13
1.01421e+13
1.01435e+13
1.01446e+13
1.01454e+13
1.00485e+13
1.00485e+13
1.00485e+13
1.00486e+13
1.00486e+13
1.00486e+13
1.00487e+13
1.00488e+13
1.00489e+13
1.00489e+13
1.0049e+13
1.00492e+13
1.00493e+13
1.00494e+13
1.00496e+13
1.00497e+13
1.00499e+13
1.005e+13
1.00502e+13
1.00504e+13
1.00506e+13
1.00509e+13
1.00511e+13
1.00513e+13
1.00516e+13
1.00519e+13
1.00522e+13
1.00524e+13
1.00528e+13
1.00531e+13
1.00534e+13
1.00538e+13
1.00541e+13
1.00545e+13
1.00549e+13
1.00553e+13
1.00558e+13
1.00562e+13
1.00567e+13
1.00571e+13
1.00576e+13
1.00582e+13
1.00587e+13
1.00593e+13
1.00598e+13
1.00604e+13
1.0061e+13
1.00617e+13
1.00624e+13
1.0063e+13
1.00638e+13
1.00645e+13
1.00653e+13
1.00661e+13
1.00669e+13
1.00677e+13
1.00686e+13
1.00696e+13
1.00705e+13
1.00715e+13
1.00725e+13
1.00736e+13
1.00747e+13
1.00759e+13
1.0077e+13
1.00783e+13
1.00796e+13
1.00809e+13
1.00823e+13
1.00837e+13
1.00852e+13
1.00867e+13
1.00883e+13
1.009e+13
1.00917e+13
1.00935e+13
1.00954e+13
1.00973e+13
1.00992e+13
1.01013e+13
1.01034e+13
1.01055e+13
1.01077e+13
1.011e+13
1.01123e+13
1.01146e+13
1.0117e+13
1.01193e+13
1.01217e+13
1.0124e+13
1.01263e+13
1.01285e+13
1.01306e+13
1.01325e+13
1.01343e+13
1.01359e+13
1.01373e+13
1.01385e+13
1.01395e+13
1.01403e+13
1.00483e+13
1.00483e+13
1.00483e+13
1.00484e+13
1.00484e+13
1.00485e+13
1.00485e+13
1.00486e+13
1.00487e+13
1.00488e+13
1.00489e+13
1.0049e+13
1.00491e+13
1.00492e+13
1.00494e+13
1.00495e+13
1.00497e+13
1.00498e+13
1.005e+13
1.00502e+13
1.00504e+13
1.00507e+13
1.00509e+13
1.00511e+13
1.00514e+13
1.00517e+13
1.00519e+13
1.00522e+13
1.00525e+13
1.00529e+13
1.00532e+13
1.00535e+13
1.00539e+13
1.00543e+13
1.00547e+13
1.00551e+13
1.00555e+13
1.00559e+13
1.00564e+13
1.00569e+13
1.00574e+13
1.00579e+13
1.00584e+13
1.00589e+13
1.00595e+13
1.00601e+13
1.00607e+13
1.00613e+13
1.0062e+13
1.00627e+13
1.00634e+13
1.00641e+13
1.00649e+13
1.00656e+13
1.00665e+13
1.00673e+13
1.00682e+13
1.00691e+13
1.007e+13
1.0071e+13
1.0072e+13
1.0073e+13
1.00741e+13
1.00752e+13
1.00764e+13
1.00776e+13
1.00788e+13
1.00801e+13
1.00814e+13
1.00828e+13
1.00842e+13
1.00857e+13
1.00873e+13
1.00889e+13
1.00905e+13
1.00922e+13
1.0094e+13
1.00958e+13
1.00977e+13
1.00996e+13
1.01016e+13
1.01036e+13
1.01056e+13
1.01078e+13
1.01099e+13
1.01121e+13
1.01142e+13
1.01164e+13
1.01186e+13
1.01207e+13
1.01228e+13
1.01248e+13
1.01267e+13
1.01284e+13
1.013e+13
1.01315e+13
1.01327e+13
1.01339e+13
1.01348e+13
1.01355e+13
1.00481e+13
1.00481e+13
1.00481e+13
1.00482e+13
1.00482e+13
1.00483e+13
1.00483e+13
1.00484e+13
1.00485e+13
1.00486e+13
1.00487e+13
1.00488e+13
1.00489e+13
1.0049e+13
1.00492e+13
1.00493e+13
1.00495e+13
1.00496e+13
1.00498e+13
1.005e+13
1.00502e+13
1.00504e+13
1.00507e+13
1.00509e+13
1.00512e+13
1.00514e+13
1.00517e+13
1.0052e+13
1.00523e+13
1.00526e+13
1.00529e+13
1.00533e+13
1.00536e+13
1.0054e+13
1.00544e+13
1.00548e+13
1.00552e+13
1.00557e+13
1.00561e+13
1.00566e+13
1.00571e+13
1.00576e+13
1.00581e+13
1.00586e+13
1.00592e+13
1.00598e+13
1.00604e+13
1.0061e+13
1.00616e+13
1.00623e+13
1.0063e+13
1.00637e+13
1.00644e+13
1.00652e+13
1.0066e+13
1.00668e+13
1.00677e+13
1.00686e+13
1.00695e+13
1.00704e+13
1.00714e+13
1.00724e+13
1.00735e+13
1.00745e+13
1.00757e+13
1.00768e+13
1.0078e+13
1.00793e+13
1.00806e+13
1.00819e+13
1.00833e+13
1.00847e+13
1.00862e+13
1.00877e+13
1.00893e+13
1.00909e+13
1.00926e+13
1.00943e+13
1.00961e+13
1.00979e+13
1.00998e+13
1.01017e+13
1.01036e+13
1.01056e+13
1.01075e+13
1.01096e+13
1.01116e+13
1.01136e+13
1.01156e+13
1.01175e+13
1.01194e+13
1.01212e+13
1.0123e+13
1.01246e+13
1.0126e+13
1.01273e+13
1.01285e+13
1.01295e+13
1.01304e+13
1.0131e+13
1.00479e+13
1.00479e+13
1.00479e+13
1.0048e+13
1.0048e+13
1.00481e+13
1.00481e+13
1.00482e+13
1.00483e+13
1.00483e+13
1.00484e+13
1.00486e+13
1.00487e+13
1.00488e+13
1.00489e+13
1.00491e+13
1.00492e+13
1.00494e+13
1.00496e+13
1.00498e+13
1.005e+13
1.00502e+13
1.00504e+13
1.00507e+13
1.00509e+13
1.00512e+13
1.00515e+13
1.00517e+13
1.0052e+13
1.00524e+13
1.00527e+13
1.0053e+13
1.00534e+13
1.00538e+13
1.00541e+13
1.00545e+13
1.00549e+13
1.00554e+13
1.00558e+13
1.00563e+13
1.00568e+13
1.00573e+13
1.00578e+13
1.00583e+13
1.00588e+13
1.00594e+13
1.006e+13
1.00606e+13
1.00613e+13
1.00619e+13
1.00626e+13
1.00633e+13
1.0064e+13
1.00648e+13
1.00655e+13
1.00663e+13
1.00672e+13
1.0068e+13
1.00689e+13
1.00698e+13
1.00708e+13
1.00718e+13
1.00728e+13
1.00739e+13
1.00749e+13
1.00761e+13
1.00772e+13
1.00784e+13
1.00797e+13
1.0081e+13
1.00823e+13
1.00837e+13
1.00851e+13
1.00866e+13
1.00881e+13
1.00896e+13
1.00912e+13
1.00928e+13
1.00945e+13
1.00962e+13
1.0098e+13
1.00998e+13
1.01016e+13
1.01034e+13
1.01053e+13
1.01071e+13
1.0109e+13
1.01108e+13
1.01127e+13
1.01145e+13
1.01162e+13
1.01179e+13
1.01195e+13
1.01209e+13
1.01223e+13
1.01235e+13
1.01245e+13
1.01255e+13
1.01262e+13
1.01269e+13
1.00477e+13
1.00477e+13
1.00477e+13
1.00477e+13
1.00478e+13
1.00478e+13
1.00479e+13
1.0048e+13
1.0048e+13
1.00481e+13
1.00482e+13
1.00483e+13
1.00484e+13
1.00486e+13
1.00487e+13
1.00489e+13
1.0049e+13
1.00492e+13
1.00494e+13
1.00496e+13
1.00498e+13
1.005e+13
1.00502e+13
1.00504e+13
1.00507e+13
1.00509e+13
1.00512e+13
1.00515e+13
1.00518e+13
1.00521e+13
1.00524e+13
1.00528e+13
1.00531e+13
1.00535e+13
1.00539e+13
1.00542e+13
1.00547e+13
1.00551e+13
1.00555e+13
1.0056e+13
1.00564e+13
1.00569e+13
1.00574e+13
1.0058e+13
1.00585e+13
1.00591e+13
1.00596e+13
1.00602e+13
1.00609e+13
1.00615e+13
1.00622e+13
1.00629e+13
1.00636e+13
1.00643e+13
1.00651e+13
1.00658e+13
1.00667e+13
1.00675e+13
1.00684e+13
1.00693e+13
1.00702e+13
1.00712e+13
1.00721e+13
1.00732e+13
1.00742e+13
1.00753e+13
1.00764e+13
1.00776e+13
1.00788e+13
1.008e+13
1.00813e+13
1.00826e+13
1.0084e+13
1.00854e+13
1.00868e+13
1.00883e+13
1.00898e+13
1.00914e+13
1.0093e+13
1.00946e+13
1.00962e+13
1.00979e+13
1.00996e+13
1.01013e+13
1.0103e+13
1.01048e+13
1.01065e+13
1.01082e+13
1.01099e+13
1.01115e+13
1.01131e+13
1.01147e+13
1.01161e+13
1.01175e+13
1.01187e+13
1.01198e+13
1.01208e+13
1.01216e+13
1.01224e+13
1.0123e+13
1.00475e+13
1.00475e+13
1.00475e+13
1.00475e+13
1.00476e+13
1.00476e+13
1.00477e+13
1.00477e+13
1.00478e+13
1.00479e+13
1.0048e+13
1.00481e+13
1.00482e+13
1.00483e+13
1.00485e+13
1.00486e+13
1.00488e+13
1.0049e+13
1.00491e+13
1.00493e+13
1.00495e+13
1.00497e+13
1.005e+13
1.00502e+13
1.00504e+13
1.00507e+13
1.0051e+13
1.00512e+13
1.00515e+13
1.00518e+13
1.00522e+13
1.00525e+13
1.00528e+13
1.00532e+13
1.00536e+13
1.00539e+13
1.00543e+13
1.00548e+13
1.00552e+13
1.00556e+13
1.00561e+13
1.00566e+13
1.00571e+13
1.00576e+13
1.00581e+13
1.00587e+13
1.00593e+13
1.00598e+13
1.00605e+13
1.00611e+13
1.00617e+13
1.00624e+13
1.00631e+13
1.00638e+13
1.00646e+13
1.00653e+13
1.00661e+13
1.00669e+13
1.00678e+13
1.00687e+13
1.00696e+13
1.00705e+13
1.00715e+13
1.00725e+13
1.00735e+13
1.00745e+13
1.00756e+13
1.00768e+13
1.00779e+13
1.00791e+13
1.00803e+13
1.00816e+13
1.00829e+13
1.00842e+13
1.00856e+13
1.0087e+13
1.00884e+13
1.00899e+13
1.00914e+13
1.00929e+13
1.00945e+13
1.00961e+13
1.00977e+13
1.00993e+13
1.01009e+13
1.01025e+13
1.01041e+13
1.01057e+13
1.01072e+13
1.01088e+13
1.01102e+13
1.01116e+13
1.0113e+13
1.01142e+13
1.01153e+13
1.01164e+13
1.01173e+13
1.01181e+13
1.01187e+13
1.01193e+13
1.00472e+13
1.00473e+13
1.00473e+13
1.00473e+13
1.00473e+13
1.00474e+13
1.00474e+13
1.00475e+13
1.00476e+13
1.00477e+13
1.00478e+13
1.00479e+13
1.0048e+13
1.00481e+13
1.00482e+13
1.00484e+13
1.00485e+13
1.00487e+13
1.00489e+13
1.00491e+13
1.00493e+13
1.00495e+13
1.00497e+13
1.00499e+13
1.00502e+13
1.00504e+13
1.00507e+13
1.0051e+13
1.00513e+13
1.00516e+13
1.00519e+13
1.00522e+13
1.00525e+13
1.00529e+13
1.00533e+13
1.00536e+13
1.0054e+13
1.00544e+13
1.00549e+13
1.00553e+13
1.00558e+13
1.00562e+13
1.00567e+13
1.00572e+13
1.00578e+13
1.00583e+13
1.00589e+13
1.00594e+13
1.006e+13
1.00607e+13
1.00613e+13
1.0062e+13
1.00626e+13
1.00633e+13
1.00641e+13
1.00648e+13
1.00656e+13
1.00664e+13
1.00672e+13
1.00681e+13
1.00689e+13
1.00698e+13
1.00708e+13
1.00717e+13
1.00727e+13
1.00738e+13
1.00748e+13
1.00759e+13
1.0077e+13
1.00782e+13
1.00793e+13
1.00805e+13
1.00818e+13
1.00831e+13
1.00844e+13
1.00857e+13
1.00871e+13
1.00885e+13
1.00899e+13
1.00913e+13
1.00928e+13
1.00943e+13
1.00958e+13
1.00973e+13
1.00988e+13
1.01003e+13
1.01018e+13
1.01032e+13
1.01047e+13
1.01061e+13
1.01075e+13
1.01088e+13
1.011e+13
1.01111e+13
1.01122e+13
1.01131e+13
1.0114e+13
1.01147e+13
1.01153e+13
1.01159e+13
1.0047e+13
1.0047e+13
1.0047e+13
1.00471e+13
1.00471e+13
1.00471e+13
1.00472e+13
1.00473e+13
1.00473e+13
1.00474e+13
1.00475e+13
1.00476e+13
1.00477e+13
1.00479e+13
1.0048e+13
1.00481e+13
1.00483e+13
1.00485e+13
1.00486e+13
1.00488e+13
1.0049e+13
1.00492e+13
1.00494e+13
1.00497e+13
1.00499e+13
1.00501e+13
1.00504e+13
1.00507e+13
1.0051e+13
1.00513e+13
1.00516e+13
1.00519e+13
1.00522e+13
1.00526e+13
1.00529e+13
1.00533e+13
1.00537e+13
1.00541e+13
1.00545e+13
1.0055e+13
1.00554e+13
1.00559e+13
1.00564e+13
1.00569e+13
1.00574e+13
1.00579e+13
1.00585e+13
1.0059e+13
1.00596e+13
1.00602e+13
1.00608e+13
1.00615e+13
1.00622e+13
1.00628e+13
1.00636e+13
1.00643e+13
1.0065e+13
1.00658e+13
1.00666e+13
1.00674e+13
1.00683e+13
1.00692e+13
1.00701e+13
1.0071e+13
1.0072e+13
1.0073e+13
1.0074e+13
1.0075e+13
1.00761e+13
1.00772e+13
1.00783e+13
1.00795e+13
1.00807e+13
1.00819e+13
1.00832e+13
1.00844e+13
1.00857e+13
1.00871e+13
1.00884e+13
1.00898e+13
1.00911e+13
1.00925e+13
1.00939e+13
1.00953e+13
1.00968e+13
1.00982e+13
1.00995e+13
1.01009e+13
1.01022e+13
1.01035e+13
1.01048e+13
1.0106e+13
1.01071e+13
1.01082e+13
1.01092e+13
1.011e+13
1.01108e+13
1.01115e+13
1.01121e+13
1.01126e+13
1.00468e+13
1.00468e+13
1.00468e+13
1.00468e+13
1.00469e+13
1.00469e+13
1.0047e+13
1.0047e+13
1.00471e+13
1.00472e+13
1.00473e+13
1.00474e+13
1.00475e+13
1.00476e+13
1.00477e+13
1.00479e+13
1.0048e+13
1.00482e+13
1.00484e+13
1.00485e+13
1.00487e+13
1.00489e+13
1.00492e+13
1.00494e+13
1.00496e+13
1.00499e+13
1.00501e+13
1.00504e+13
1.00507e+13
1.0051e+13
1.00513e+13
1.00516e+13
1.00519e+13
1.00523e+13
1.00526e+13
1.0053e+13
1.00534e+13
1.00538e+13
1.00542e+13
1.00546e+13
1.00551e+13
1.00555e+13
1.0056e+13
1.00565e+13
1.0057e+13
1.00575e+13
1.0058e+13
1.00586e+13
1.00592e+13
1.00598e+13
1.00604e+13
1.0061e+13
1.00617e+13
1.00623e+13
1.0063e+13
1.00637e+13
1.00645e+13
1.00652e+13
1.0066e+13
1.00668e+13
1.00677e+13
1.00685e+13
1.00694e+13
1.00703e+13
1.00712e+13
1.00722e+13
1.00732e+13
1.00742e+13