/*--------------------------------*- C++ -*----------------------------------*\
  =========                 |
  \\      /  F ield         | OpenFOAM: The Open Source CFD Toolbox
   \\    /   O peration     | Website:  https://openfoam.org
    \\  /    A nd           | Version:  7
     \\/     M anipulation  |
\*---------------------------------------------------------------------------*/
FoamFile
{
    version     2.0;
    format      ascii;
    class       volScalarField;
    location    "6e-13";
    object      voltAext;
}
// * * * * * * * * * * * * * * * * * * * * * * * * * * * * * * * * * * * * * //

dimensions      [1 2 -3 0 0 -1 0];

internalField   nonuniform List<scalar> 
15066
(
1197.62
1197.62
1197.62
1197.62
1197.62
1197.62
1197.61
1197.61
1197.61
1197.6
1197.6
1197.59
1197.58
1197.58
1197.57
1197.56
1197.55
1197.55
1197.54
1197.53
1197.52
1197.5
1197.49
1197.48
1197.47
1197.45
1197.44
1197.42
1197.41
1197.39
1197.37
1197.35
1197.33
1197.31
1197.29
1197.27
1197.25
1197.23
1197.2
1197.18
1197.15
1197.12
1197.09
1197.06
1197.03
1197
1196.97
1196.93
1196.9
1196.86
1196.82
1196.78
1196.73
1196.69
1196.64
1196.59
1196.54
1196.49
1196.43
1196.38
1196.31
1196.25
1196.18
1196.11
1196.04
1195.96
1195.88
1195.79
1195.7
1195.61
1195.5
1195.4
1195.28
1195.16
1195.03
1194.89
1194.74
1194.58
1194.4
1194.22
1194.01
1193.79
1193.55
1193.28
1192.99
1192.66
1192.3
1191.88
1191.41
1190.86
1190.22
1189.47
1188.55
1187.4
1185.91
1183.88
1180.88
1175.84
1165.51
1138.02
1192.87
1192.87
1192.87
1192.87
1192.86
1192.85
1192.84
1192.83
1192.82
1192.81
1192.79
1192.77
1192.75
1192.73
1192.71
1192.69
1192.66
1192.64
1192.61
1192.58
1192.55
1192.51
1192.48
1192.44
1192.4
1192.36
1192.31
1192.27
1192.22
1192.17
1192.12
1192.06
1192
1191.94
1191.88
1191.82
1191.75
1191.68
1191.61
1191.53
1191.45
1191.37
1191.28
1191.19
1191.1
1191
1190.9
1190.8
1190.69
1190.57
1190.45
1190.33
1190.2
1190.07
1189.93
1189.78
1189.63
1189.47
1189.3
1189.13
1188.95
1188.75
1188.55
1188.34
1188.12
1187.89
1187.64
1187.39
1187.11
1186.82
1186.52
1186.19
1185.85
1185.48
1185.09
1184.68
1184.23
1183.75
1183.23
1182.67
1182.06
1181.4
1180.68
1179.88
1179
1178.03
1176.93
1175.7
1174.3
1172.68
1170.79
1168.56
1165.86
1162.53
1158.27
1152.61
1144.69
1132.83
1113.67
1080.79
1188.13
1188.12
1188.12
1188.11
1188.1
1188.09
1188.07
1188.05
1188.03
1188.01
1187.99
1187.96
1187.93
1187.89
1187.86
1187.82
1187.78
1187.73
1187.68
1187.63
1187.58
1187.52
1187.46
1187.4
1187.33
1187.26
1187.19
1187.11
1187.03
1186.95
1186.86
1186.77
1186.67
1186.58
1186.47
1186.36
1186.25
1186.13
1186.01
1185.89
1185.75
1185.62
1185.47
1185.32
1185.17
1185.01
1184.84
1184.66
1184.48
1184.29
1184.1
1183.89
1183.68
1183.45
1183.22
1182.98
1182.72
1182.46
1182.18
1181.89
1181.59
1181.27
1180.93
1180.58
1180.22
1179.83
1179.42
1178.99
1178.54
1178.06
1177.55
1177.01
1176.44
1175.83
1175.18
1174.49
1173.75
1172.95
1172.09
1171.17
1170.16
1169.07
1167.87
1166.56
1165.11
1163.51
1161.71
1159.69
1157.4
1154.77
1151.71
1148.12
1143.82
1138.58
1132.03
1123.61
1112.43
1097.11
1075.56
1045.3
1183.38
1183.38
1183.37
1183.36
1183.34
1183.33
1183.3
1183.28
1183.25
1183.22
1183.18
1183.14
1183.1
1183.05
1183
1182.95
1182.89
1182.83
1182.76
1182.69
1182.61
1182.53
1182.45
1182.36
1182.27
1182.17
1182.07
1181.96
1181.85
1181.73
1181.61
1181.48
1181.35
1181.21
1181.07
1180.92
1180.76
1180.59
1180.42
1180.25
1180.06
1179.87
1179.67
1179.46
1179.24
1179.02
1178.78
1178.54
1178.29
1178.02
1177.75
1177.46
1177.16
1176.85
1176.52
1176.18
1175.83
1175.46
1175.07
1174.67
1174.24
1173.8
1173.33
1172.84
1172.33
1171.79
1171.22
1170.62
1169.99
1169.32
1168.61
1167.86
1167.07
1166.22
1165.32
1164.36
1163.33
1162.22
1161.03
1159.74
1158.35
1156.84
1155.19
1153.38
1151.38
1149.18
1146.72
1143.96
1140.84
1137.28
1133.17
1128.38
1122.73
1115.94
1107.65
1097.35
1084.33
1067.63
1046.16
1019.12
1178.64
1178.63
1178.62
1178.61
1178.59
1178.57
1178.54
1178.51
1178.47
1178.43
1178.38
1178.33
1178.28
1178.22
1178.15
1178.08
1178.01
1177.93
1177.84
1177.75
1177.65
1177.55
1177.44
1177.33
1177.21
1177.09
1176.96
1176.82
1176.67
1176.52
1176.37
1176.2
1176.03
1175.85
1175.67
1175.47
1175.27
1175.06
1174.84
1174.61
1174.38
1174.13
1173.87
1173.61
1173.33
1173.04
1172.74
1172.43
1172.1
1171.76
1171.41
1171.04
1170.66
1170.26
1169.84
1169.4
1168.95
1168.47
1167.98
1167.46
1166.92
1166.35
1165.75
1165.12
1164.47
1163.78
1163.05
1162.28
1161.48
1160.62
1159.72
1158.76
1157.75
1156.67
1155.52
1154.29
1152.98
1151.57
1150.06
1148.43
1146.66
1144.75
1142.66
1140.38
1137.87
1135.1
1132.02
1128.58
1124.71
1120.33
1115.31
1109.52
1102.76
1094.79
1085.29
1073.83
1059.89
1042.91
1022.34
997.994
1173.9
1173.89
1173.88
1173.86
1173.84
1173.81
1173.78
1173.74
1173.7
1173.65
1173.59
1173.53
1173.46
1173.39
1173.31
1173.22
1173.13
1173.03
1172.93
1172.82
1172.7
1172.57
1172.44
1172.31
1172.16
1172.01
1171.85
1171.68
1171.5
1171.32
1171.13
1170.93
1170.72
1170.5
1170.28
1170.04
1169.79
1169.54
1169.27
1168.99
1168.7
1168.4
1168.09
1167.76
1167.43
1167.07
1166.71
1166.33
1165.93
1165.51
1165.08
1164.64
1164.17
1163.68
1163.17
1162.64
1162.09
1161.51
1160.91
1160.28
1159.62
1158.92
1158.2
1157.44
1156.64
1155.8
1154.92
1153.99
1153.01
1151.97
1150.88
1149.72
1148.49
1147.18
1145.79
1144.31
1142.73
1141.03
1139.21
1137.24
1135.12
1132.83
1130.33
1127.6
1124.61
1121.33
1117.69
1113.64
1109.11
1104.01
1098.23
1091.62
1084.01
1075.19
1064.88
1052.77
1038.51
1021.77
1002.29
980.112
1169.17
1169.16
1169.15
1169.13
1169.1
1169.07
1169.03
1168.98
1168.93
1168.87
1168.8
1168.73
1168.65
1168.56
1168.47
1168.37
1168.26
1168.14
1168.02
1167.89
1167.75
1167.6
1167.45
1167.29
1167.12
1166.94
1166.75
1166.55
1166.34
1166.13
1165.9
1165.66
1165.42
1165.16
1164.89
1164.62
1164.33
1164.02
1163.71
1163.38
1163.04
1162.69
1162.32
1161.93
1161.54
1161.12
1160.69
1160.24
1159.77
1159.29
1158.78
1158.25
1157.7
1157.13
1156.53
1155.91
1155.26
1154.58
1153.87
1153.12
1152.35
1151.54
1150.68
1149.79
1148.85
1147.87
1146.83
1145.74
1144.6
1143.38
1142.1
1140.75
1139.31
1137.78
1136.16
1134.43
1132.59
1130.61
1128.49
1126.22
1123.76
1121.11
1118.22
1115.09
1111.66
1107.9
1103.76
1099.18
1094.08
1088.38
1081.96
1074.72
1066.48
1057.06
1046.27
1033.87
1019.62
1003.35
984.959
964.526
1164.44
1164.43
1164.42
1164.39
1164.36
1164.33
1164.28
1164.23
1164.17
1164.1
1164.02
1163.94
1163.85
1163.75
1163.64
1163.52
1163.4
1163.26
1163.12
1162.97
1162.81
1162.64
1162.46
1162.28
1162.08
1161.87
1161.66
1161.43
1161.19
1160.94
1160.68
1160.41
1160.13
1159.83
1159.52
1159.2
1158.87
1158.52
1158.16
1157.78
1157.39
1156.98
1156.56
1156.12
1155.66
1155.18
1154.69
1154.17
1153.64
1153.08
1152.49
1151.89
1151.26
1150.6
1149.91
1149.2
1148.45
1147.67
1146.86
1146.01
1145.12
1144.19
1143.21
1142.19
1141.12
1139.99
1138.8
1137.56
1136.25
1134.86
1133.4
1131.85
1130.22
1128.48
1126.64
1124.67
1122.58
1120.34
1117.94
1115.37
1112.6
1109.61
1106.38
1102.87
1099.04
1094.86
1090.28
1085.23
1079.65
1073.45
1066.54
1058.81
1050.12
1040.32
1029.27
1016.8
1002.76
987.059
969.664
950.673
1159.72
1159.71
1159.69
1159.67
1159.64
1159.59
1159.54
1159.48
1159.41
1159.34
1159.25
1159.15
1159.05
1158.94
1158.81
1158.68
1158.54
1158.39
1158.23
1158.06
1157.88
1157.69
1157.49
1157.28
1157.05
1156.82
1156.57
1156.32
1156.05
1155.77
1155.47
1155.17
1154.85
1154.51
1154.17
1153.8
1153.43
1153.03
1152.63
1152.2
1151.76
1151.3
1150.82
1150.32
1149.81
1149.27
1148.71
1148.13
1147.52
1146.89
1146.23
1145.55
1144.84
1144.1
1143.32
1142.52
1141.68
1140.8
1139.88
1138.93
1137.93
1136.88
1135.78
1134.63
1133.43
1132.17
1130.84
1129.44
1127.97
1126.42
1124.78
1123.05
1121.22
1119.29
1117.23
1115.04
1112.71
1110.22
1107.56
1104.72
1101.66
1098.36
1094.8
1090.96
1086.78
1082.23
1077.26
1071.82
1065.84
1059.24
1051.94
1043.85
1034.85
1024.84
1013.69
1001.3
987.572
972.456
955.965
938.187
1155.01
1155
1154.98
1154.95
1154.92
1154.87
1154.81
1154.74
1154.67
1154.58
1154.49
1154.38
1154.26
1154.14
1154
1153.85
1153.7
1153.53
1153.35
1153.16
1152.96
1152.75
1152.52
1152.29
1152.04
1151.78
1151.5
1151.22
1150.92
1150.61
1150.28
1149.94
1149.58
1149.21
1148.82
1148.42
1148
1147.56
1147.11
1146.64
1146.14
1145.63
1145.1
1144.55
1143.97
1143.37
1142.75
1142.1
1141.43
1140.73
1140
1139.24
1138.45
1137.63
1136.77
1135.87
1134.94
1133.97
1132.95
1131.89
1130.78
1129.62
1128.41
1127.14
1125.8
1124.41
1122.94
1121.4
1119.77
1118.06
1116.26
1114.35
1112.34
1110.21
1107.95
1105.55
1103
1100.28
1097.38
1094.27
1090.95
1087.37
1083.53
1079.37
1074.88
1070.01
1064.72
1058.95
1052.64
1045.73
1038.14
1029.8
1020.61
1010.5
999.363
987.138
973.767
959.229
943.55
926.811
1150.31
1150.3
1150.28
1150.25
1150.2
1150.15
1150.09
1150.02
1149.93
1149.84
1149.73
1149.61
1149.49
1149.35
1149.2
1149.04
1148.86
1148.68
1148.48
1148.27
1148.05
1147.82
1147.57
1147.31
1147.03
1146.75
1146.45
1146.13
1145.8
1145.46
1145.1
1144.72
1144.33
1143.92
1143.5
1143.05
1142.59
1142.11
1141.61
1141.09
1140.55
1139.99
1139.4
1138.79
1138.16
1137.5
1136.82
1136.11
1135.37
1134.6
1133.8
1132.96
1132.1
1131.19
1130.25
1129.27
1128.25
1127.18
1126.07
1124.9
1123.69
1122.42
1121.09
1119.7
1118.24
1116.72
1115.11
1113.43
1111.66
1109.8
1107.83
1105.76
1103.58
1101.26
1098.81
1096.22
1093.46
1090.52
1087.39
1084.06
1080.48
1076.66
1072.55
1068.13
1063.37
1058.22
1052.65
1046.61
1040.04
1032.89
1025.09
1016.59
1007.3
997.166
986.123
974.121
961.129
947.143
932.196
916.358
1145.62
1145.61
1145.58
1145.55
1145.5
1145.45
1145.38
1145.3
1145.21
1145.1
1144.99
1144.86
1144.72
1144.57
1144.41
1144.23
1144.04
1143.84
1143.62
1143.39
1143.15
1142.9
1142.63
1142.34
1142.05
1141.73
1141.4
1141.06
1140.7
1140.33
1139.93
1139.52
1139.1
1138.65
1138.19
1137.7
1137.2
1136.68
1136.13
1135.56
1134.97
1134.36
1133.72
1133.06
1132.37
1131.66
1130.91
1130.14
1129.33
1128.5
1127.63
1126.72
1125.78
1124.79
1123.77
1122.71
1121.6
1120.44
1119.23
1117.97
1116.65
1115.28
1113.84
1112.33
1110.76
1109.1
1107.37
1105.55
1103.64
1101.63
1099.52
1097.29
1094.94
1092.45
1089.82
1087.04
1084.09
1080.95
1077.62
1074.07
1070.28
1066.23
1061.89
1057.24
1052.24
1046.86
1041.06
1034.8
1028.03
1020.7
1012.76
1004.16
994.835
984.745
973.842
962.093
949.484
936.019
921.733
906.686
1140.94
1140.93
1140.9
1140.87
1140.82
1140.75
1140.68
1140.59
1140.49
1140.38
1140.26
1140.12
1139.97
1139.8
1139.63
1139.43
1139.23
1139.01
1138.78
1138.53
1138.27
1137.99
1137.7
1137.39
1137.07
1136.73
1136.38
1136.01
1135.62
1135.21
1134.79
1134.34
1133.88
1133.4
1132.9
1132.37
1131.83
1131.26
1130.67
1130.06
1129.42
1128.76
1128.07
1127.36
1126.61
1125.84
1125.04
1124.2
1123.33
1122.43
1121.49
1120.51
1119.5
1118.44
1117.34
1116.19
1114.99
1113.74
1112.45
1111.09
1109.67
1108.19
1106.65
1105.03
1103.34
1101.57
1099.71
1097.77
1095.72
1093.57
1091.32
1088.94
1086.43
1083.78
1080.99
1078.03
1074.91
1071.59
1068.06
1064.32
1060.33
1056.08
1051.54
1046.68
1041.49
1035.91
1029.93
1023.49
1016.57
1009.12
1001.09
992.443
983.139
973.136
962.406
950.927
938.694
925.717
912.03
897.686
1136.27
1136.26
1136.23
1136.19
1136.14
1136.07
1135.99
1135.9
1135.79
1135.67
1135.54
1135.39
1135.23
1135.05
1134.86
1134.65
1134.43
1134.2
1133.95
1133.68
1133.4
1133.1
1132.79
1132.46
1132.11
1131.75
1131.37
1130.97
1130.55
1130.11
1129.66
1129.18
1128.68
1128.17
1127.63
1127.07
1126.48
1125.87
1125.24
1124.58
1123.9
1123.19
1122.45
1121.68
1120.88
1120.05
1119.19
1118.3
1117.37
1116.4
1115.39
1114.35
1113.26
1112.12
1110.94
1109.72
1108.44
1107.11
1105.72
1104.27
1102.76
1101.18
1099.53
1097.81
1096.01
1094.12
1092.15
1090.08
1087.91
1085.63
1083.23
1080.71
1078.06
1075.27
1072.32
1069.2
1065.91
1062.43
1058.73
1054.81
1050.65
1046.22
1041.51
1036.48
1031.11
1025.38
1019.24
1012.68
1005.64
998.108
990.036
981.39
972.14
962.256
951.719
940.515
928.646
916.126
902.985
889.269
1131.62
1131.61
1131.58
1131.53
1131.48
1131.41
1131.32
1131.22
1131.11
1130.98
1130.83
1130.68
1130.5
1130.31
1130.11
1129.89
1129.65
1129.4
1129.13
1128.85
1128.55
1128.23
1127.9
1127.54
1127.17
1126.78
1126.38
1125.95
1125.5
1125.03
1124.55
1124.04
1123.51
1122.96
1122.38
1121.78
1121.16
1120.51
1119.83
1119.13
1118.4
1117.64
1116.85
1116.04
1115.19
1114.3
1113.38
1112.43
1111.44
1110.41
1109.33
1108.22
1107.06
1105.86
1104.6
1103.3
1101.94
1100.52
1099.05
1097.51
1095.91
1094.24
1092.49
1090.66
1088.76
1086.76
1084.68
1082.49
1080.2
1077.8
1075.27
1072.62
1069.83
1066.9
1063.81
1060.55
1057.11
1053.47
1049.62
1045.55
1041.23
1036.65
1031.78
1026.61
1021.1
1015.24
1008.99
1002.33
995.219
987.639
979.556
970.943
961.774
952.031
941.698
930.77
919.25
907.155
894.513
881.365
1126.98
1126.97
1126.94
1126.89
1126.83
1126.75
1126.66
1126.56
1126.43
1126.3
1126.14
1125.98
1125.79
1125.59
1125.37
1125.14
1124.89
1124.62
1124.34
1124.03
1123.71
1123.38
1123.02
1122.64
1122.25
1121.84
1121.4
1120.95
1120.47
1119.98
1119.46
1118.92
1118.35
1117.77
1117.16
1116.52
1115.86
1115.17
1114.45
1113.71
1112.93
1112.13
1111.29
1110.42
1109.52
1108.58
1107.61
1106.6
1105.55
1104.45
1103.32
1102.14
1100.91
1099.64
1098.31
1096.93
1095.5
1094
1092.44
1090.82
1089.13
1087.36
1085.52
1083.6
1081.6
1079.5
1077.3
1075.01
1072.6
1070.08
1067.44
1064.67
1061.76
1058.69
1055.47
1052.08
1048.5
1044.73
1040.74
1036.53
1032.08
1027.37
1022.37
1017.07
1011.45
1005.49
999.152
992.42
985.269
977.672
969.606
961.05
951.984
942.394
932.272
921.615
910.43
898.732
886.549
873.915
1122.36
1122.34
1122.31
1122.26
1122.2
1122.12
1122.02
1121.91
1121.78
1121.63
1121.47
1121.29
1121.1
1120.88
1120.65
1120.41
1120.14
1119.86
1119.55
1119.23
1118.9
1118.54
1118.16
1117.76
1117.35
1116.91
1116.45
1115.97
1115.47
1114.94
1114.39
1113.82
1113.23
1112.6
1111.96
1111.28
1110.58
1109.86
1109.1
1108.31
1107.49
1106.64
1105.76
1104.84
1103.89
1102.9
1101.87
1100.81
1099.7
1098.55
1097.35
1096.11
1094.81
1093.47
1092.07
1090.62
1089.11
1087.54
1085.9
1084.2
1082.42
1080.57
1078.64
1076.63
1074.52
1072.33
1070.03
1067.63
1065.12
1062.5
1059.74
1056.85
1053.82
1050.64
1047.3
1043.79
1040.09
1036.19
1032.09
1027.76
1023.19
1018.36
1013.26
1007.86
1002.15
996.108
989.71
982.935
975.763
968.174
960.147
951.666
942.718
933.291
923.38
912.988
902.121
890.796
879.035
866.871
1117.75
1117.73
1117.7
1117.65
1117.58
1117.49
1117.39
1117.27
1117.14
1116.98
1116.81
1116.62
1116.42
1116.19
1115.95
1115.69
1115.41
1115.11
1114.79
1114.46
1114.1
1113.72
1113.32
1112.9
1112.46
1112
1111.52
1111.01
1110.48
1109.93
1109.35
1108.75
1108.12
1107.47
1106.79
1106.08
1105.34
1104.57
1103.77
1102.95
1102.09
1101.19
1100.26
1099.3
1098.3
1097.26
1096.18
1095.05
1093.89
1092.68
1091.43
1090.12
1088.77
1087.36
1085.89
1084.37
1082.79
1081.14
1079.43
1077.65
1075.79
1073.86
1071.84
1069.74
1067.55
1065.26
1062.87
1060.37
1057.76
1055.03
1052.17
1049.18
1046.05
1042.76
1039.31
1035.68
1031.88
1027.87
1023.66
1019.23
1014.55
1009.63
1004.44
998.962
993.183
987.082
980.643
973.847
966.675
959.112
951.142
942.751
933.93
924.67
914.971
904.835
894.271
883.294
871.925
860.193
1113.16
1113.14
1113.1
1113.05
1112.98
1112.89
1112.78
1112.66
1112.52
1112.35
1112.17
1111.98
1111.76
1111.52
1111.27
1110.99
1110.7
1110.38
1110.05
1109.7
1109.32
1108.92
1108.51
1108.07
1107.6
1107.12
1106.61
1106.08
1105.52
1104.94
1104.33
1103.7
1103.04
1102.36
1101.64
1100.9
1100.12
1099.32
1098.48
1097.61
1096.71
1095.77
1094.8
1093.79
1092.74
1091.65
1090.52
1089.35
1088.13
1086.86
1085.55
1084.19
1082.77
1081.3
1079.77
1078.18
1076.53
1074.81
1073.03
1071.17
1069.23
1067.22
1065.12
1062.94
1060.66
1058.29
1055.81
1053.22
1050.52
1047.7
1044.74
1041.65
1038.42
1035.03
1031.48
1027.76
1023.86
1019.76
1015.45
1010.93
1006.17
1001.17
995.906
990.366
984.535
978.396
971.934
965.133
957.98
950.458
942.558
934.267
925.579
916.49
906.999
897.111
886.834
876.183
865.178
853.844
1108.58
1108.56
1108.53
1108.47
1108.4
1108.3
1108.19
1108.06
1107.91
1107.74
1107.55
1107.35
1107.12
1106.87
1106.6
1106.32
1106.01
1105.68
1105.33
1104.96
1104.56
1104.15
1103.71
1103.25
1102.77
1102.26
1101.73
1101.17
1100.59
1099.98
1099.34
1098.68
1097.99
1097.27
1096.53
1095.75
1094.94
1094.1
1093.22
1092.32
1091.37
1090.39
1089.38
1088.32
1087.23
1086.09
1084.91
1083.68
1082.41
1081.09
1079.73
1078.3
1076.83
1075.3
1073.71
1072.05
1070.34
1068.55
1066.7
1064.77
1062.76
1060.67
1058.5
1056.24
1053.88
1051.42
1048.86
1046.19
1043.4
1040.49
1037.45
1034.27
1030.95
1027.47
1023.83
1020.02
1016.03
1011.85
1007.47
1002.86
998.037
992.969
987.648
982.061
976.194
970.032
963.563
956.774
949.651
942.184
934.363
926.18
917.63
908.711
899.424
889.775
879.771
869.427
858.761
847.795
1104.03
1104.01
1103.97
1103.91
1103.83
1103.74
1103.62
1103.48
1103.33
1103.15
1102.95
1102.73
1102.5
1102.24
1101.96
1101.66
1101.34
1100.99
1100.63
1100.24
1099.83
1099.39
1098.94
1098.46
1097.95
1097.42
1096.87
1096.28
1095.68
1095.04
1094.38
1093.69
1092.97
1092.22
1091.44
1090.63
1089.79
1088.91
1088
1087.05
1086.07
1085.05
1083.99
1082.89
1081.75
1080.57
1079.34
1078.07
1076.75
1075.38
1073.95
1072.48
1070.95
1069.36
1067.7
1065.99
1064.21
1062.36
1060.44
1058.44
1056.37
1054.21
1051.96
1049.62
1047.19
1044.66
1042.02
1039.27
1036.4
1033.41
1030.29
1027.03
1023.63
1020.07
1016.35
1012.47
1008.4
1004.15
999.692
995.027
990.141
985.021
979.657
974.036
968.147
961.976
955.513
948.747
941.667
934.263
926.53
918.46
910.051
901.301
892.213
882.792
873.048
862.993
852.644
842.02
1099.49
1099.47
1099.43
1099.37
1099.29
1099.19
1099.07
1098.92
1098.76
1098.58
1098.37
1098.14
1097.9
1097.63
1097.34
1097.02
1096.69
1096.33
1095.95
1095.54
1095.12
1094.66
1094.19
1093.69
1093.16
1092.61
1092.03
1091.43
1090.79
1090.13
1089.44
1088.73
1087.98
1087.2
1086.39
1085.54
1084.67
1083.75
1082.81
1081.82
1080.8
1079.74
1078.65
1077.5
1076.32
1075.09
1073.82
1072.5
1071.13
1069.71
1068.23
1066.71
1065.12
1063.47
1061.77
1059.99
1058.15
1056.24
1054.26
1052.2
1050.06
1047.83
1045.52
1043.11
1040.61
1038
1035.29
1032.47
1029.53
1026.46
1023.27
1019.94
1016.46
1012.83
1009.05
1005.09
1000.96
996.642
992.129
987.411
982.478
977.319
971.923
966.281
960.38
954.213
947.767
941.034
934.005
926.674
919.033
911.08
902.811
894.229
885.334
876.133
866.636
856.853
846.801
836.496
1094.98
1094.96
1094.91
1094.85
1094.77
1094.66
1094.53
1094.39
1094.22
1094.02
1093.81
1093.58
1093.32
1093.04
1092.74
1092.41
1092.06
1091.69
1091.29
1090.87
1090.43
1089.96
1089.46
1088.94
1088.4
1087.82
1087.22
1086.6
1085.94
1085.25
1084.54
1083.79
1083.02
1082.21
1081.37
1080.49
1079.58
1078.64
1077.65
1076.64
1075.58
1074.48
1073.34
1072.16
1070.93
1069.66
1068.35
1066.98
1065.56
1064.09
1062.57
1060.99
1059.35
1057.65
1055.89
1054.06
1052.17
1050.2
1048.15
1046.03
1043.83
1041.54
1039.16
1036.69
1034.12
1031.45
1028.68
1025.79
1022.78
1019.64
1016.38
1012.99
1009.44
1005.75
1001.9
997.89
993.702
989.332
984.771
980.01
975.04
969.852
964.436
958.782
952.882
946.727
940.307
933.616
926.647
919.392
911.849
904.014
895.887
887.468
878.761
869.771
860.508
850.983
841.21
831.204
1090.48
1090.46
1090.42
1090.35
1090.26
1090.16
1090.02
1089.87
1089.69
1089.49
1089.27
1089.03
1088.76
1088.47
1088.16
1087.82
1087.46
1087.07
1086.66
1086.23
1085.77
1085.28
1084.77
1084.23
1083.66
1083.07
1082.44
1081.79
1081.11
1080.4
1079.66
1078.89
1078.09
1077.25
1076.38
1075.47
1074.53
1073.55
1072.54
1071.48
1070.39
1069.26
1068.08
1066.86
1065.59
1064.28
1062.92
1061.51
1060.05
1058.53
1056.96
1055.34
1053.65
1051.9
1050.08
1048.2
1046.25
1044.23
1042.13
1039.95
1037.69
1035.34
1032.9
1030.37
1027.74
1025.01
1022.17
1019.22
1016.15
1012.96
1009.64
1006.18
1002.58
998.832
994.929
990.863
986.627
982.213
977.613
972.819
967.822
962.613
957.186
951.531
945.639
939.505
933.12
926.477
919.572
912.4
904.957
897.242
889.254
880.995
872.47
863.683
854.644
845.362
835.851
826.125
1086.01
1085.99
1085.94
1085.88
1085.78
1085.67
1085.53
1085.38
1085.19
1084.99
1084.76
1084.51
1084.23
1083.93
1083.6
1083.25
1082.88
1082.48
1082.06
1081.61
1081.13
1080.63
1080.09
1079.54
1078.95
1078.34
1077.69
1077.02
1076.32
1075.58
1074.82
1074.02
1073.19
1072.32
1071.42
1070.49
1069.52
1068.51
1067.46
1066.37
1065.25
1064.08
1062.86
1061.6
1060.3
1058.95
1057.55
1056.09
1054.59
1053.03
1051.41
1049.74
1048
1046.21
1044.34
1042.41
1040.41
1038.33
1036.18
1033.95
1031.63
1029.23
1026.74
1024.15
1021.46
1018.68
1015.78
1012.77
1009.65
1006.4
1003.02
999.512
995.862
992.065
988.116
984.007
979.731
975.281
970.65
965.83
960.814
955.594
950.164
944.515
938.64
932.534
926.189
919.601
912.766
905.678
898.337
890.742
882.892
874.79
866.44
857.847
849.021
839.97
830.707
821.244
1081.56
1081.54
1081.49
1081.42
1081.33
1081.21
1081.07
1080.9
1080.72
1080.5
1080.27
1080.01
1079.72
1079.41
1079.07
1078.71
1078.33
1077.91
1077.48
1077.01
1076.52
1076
1075.45
1074.87
1074.27
1073.64
1072.97
1072.28
1071.55
1070.79
1070.01
1069.18
1068.33
1067.43
1066.51
1065.54
1064.54
1063.5
1062.42
1061.3
1060.14
1058.94
1057.69
1056.39
1055.05
1053.66
1052.22
1050.73
1049.18
1047.58
1045.92
1044.2
1042.42
1040.58
1038.67
1036.69
1034.64
1032.52
1030.31
1028.03
1025.66
1023.21
1020.67
1018.03
1015.29
1012.45
1009.5
1006.44
1003.27
999.968
996.544
992.987
989.291
985.452
981.463
977.317
973.008
968.529
963.875
959.037
954.01
948.786
943.36
937.724
931.873
925.8
919.502
912.973
906.21
899.211
891.973
884.496
876.782
868.832
860.652
852.246
843.623
834.791
825.762
816.547
1077.13
1077.11
1077.06
1076.99
1076.89
1076.77
1076.63
1076.46
1076.26
1076.04
1075.8
1075.53
1075.24
1074.92
1074.57
1074.2
1073.8
1073.37
1072.92
1072.44
1071.93
1071.4
1070.84
1070.24
1069.62
1068.97
1068.28
1067.57
1066.82
1066.04
1065.23
1064.38
1063.5
1062.58
1061.63
1060.63
1059.6
1058.54
1057.43
1056.27
1055.08
1053.84
1052.56
1051.23
1049.85
1048.43
1046.95
1045.42
1043.83
1042.19
1040.49
1038.73
1036.91
1035.02
1033.07
1031.04
1028.95
1026.78
1024.53
1022.2
1019.78
1017.28
1014.69
1012
1009.22
1006.33
1003.33
1000.23
997.007
993.665
990.197
986.599
982.865
978.989
974.966
970.79
966.454
961.954
957.283
952.434
947.402
942.181
936.765
931.149
925.326
919.293
913.045
906.579
899.892
892.981
885.846
878.488
870.906
863.105
855.089
846.863
838.433
829.81
821.002
812.022
1072.73
1072.71
1072.66
1072.58
1072.48
1072.36
1072.21
1072.04
1071.83
1071.61
1071.36
1071.08
1070.78
1070.45
1070.09
1069.71
1069.3
1068.86
1068.4
1067.9
1067.38
1066.83
1066.25
1065.64
1065
1064.33
1063.62
1062.89
1062.12
1061.32
1060.48
1059.61
1058.7
1057.76
1056.78
1055.76
1054.71
1053.61
1052.47
1051.29
1050.06
1048.79
1047.48
1046.12
1044.7
1043.24
1041.73
1040.16
1038.54
1036.86
1035.12
1033.32
1031.46
1029.53
1027.53
1025.47
1023.33
1021.11
1018.82
1016.45
1013.99
1011.44
1008.81
1006.08
1003.25
1000.32
997.278
994.131
990.868
987.487
983.982
980.348
976.58
972.673
968.622
964.422
960.066
955.55
950.868
946.014
940.984
935.771
930.371
924.779
918.99
913.001
906.807
900.406
893.796
886.976
879.944
872.702
865.251
857.594
849.736
841.682
833.438
825.013
816.415
807.656
1068.36
1068.33
1068.28
1068.2
1068.1
1067.97
1067.82
1067.64
1067.43
1067.2
1066.94
1066.66
1066.35
1066.01
1065.64
1065.25
1064.83
1064.38
1063.9
1063.39
1062.85
1062.29
1061.69
1061.06
1060.41
1059.72
1058.99
1058.24
1057.45
1056.63
1055.77
1054.88
1053.95
1052.98
1051.98
1050.93
1049.85
1048.72
1047.56
1046.35
1045.09
1043.79
1042.45
1041.05
1039.61
1038.11
1036.56
1034.96
1033.3
1031.59
1029.81
1027.97
1026.07
1024.1
1022.07
1019.96
1017.78
1015.53
1013.2
1010.78
1008.28
1005.7
1003.02
1000.25
997.378
994.408
991.332
988.147
984.849
981.433
977.895
974.23
970.434
966.501
962.428
958.209
953.838
949.312
944.625
939.772
934.748
929.549
924.169
918.606
912.855
906.913
900.776
894.443
887.912
881.181
874.252
867.125
859.801
852.285
844.58
836.69
828.624
820.388
811.99
803.441
1064
1063.98
1063.92
1063.85
1063.74
1063.61
1063.45
1063.27
1063.06
1062.82
1062.55
1062.26
1061.94
1061.59
1061.22
1060.81
1060.38
1059.92
1059.43
1058.91
1058.36
1057.78
1057.17
1056.52
1055.85
1055.14
1054.4
1053.63
1052.82
1051.98
1051.1
1050.18
1049.23
1048.24
1047.21
1046.14
1045.03
1043.88
1042.69
1041.45
1040.17
1038.84
1037.46
1036.03
1034.56
1033.03
1031.45
1029.81
1028.12
1026.37
1024.56
1022.69
1020.75
1018.75
1016.67
1014.53
1012.32
1010.02
1007.65
1005.2
1002.66
1000.04
997.325
994.517
991.612
988.606
985.496
982.278
978.947
975.501
971.935
968.244
964.424
960.471
956.38
952.147
947.766
943.235
938.547
933.7
928.687
923.506
918.152
912.621
906.911
901.019
894.942
888.678
882.226
875.586
868.758
861.744
854.545
847.165
839.607
831.876
823.98
815.924
807.717
799.367
1059.68
1059.65
1059.6
1059.52
1059.41
1059.27
1059.11
1058.92
1058.71
1058.46
1058.19
1057.89
1057.56
1057.21
1056.82
1056.41
1055.96
1055.49
1054.99
1054.46
1053.89
1053.3
1052.67
1052.01
1051.32
1050.6
1049.84
1049.05
1048.22
1047.36
1046.46
1045.52
1044.55
1043.54
1042.48
1041.39
1040.26
1039.08
1037.86
1036.6
1035.29
1033.93
1032.52
1031.07
1029.56
1028.01
1026.39
1024.73
1023
1021.22
1019.37
1017.47
1015.5
1013.46
1011.35
1009.17
1006.92
1004.6
1002.19
999.702
997.131
994.473
991.725
988.883
985.946
982.908
979.767
976.52
973.162
969.69
966.099
962.386
958.547
954.578
950.474
946.231
941.846
937.314
932.631
927.792
922.795
917.636
912.31
906.816
901.15
895.31
889.294
883.1
876.728
870.179
863.451
856.548
849.47
842.221
834.806
827.229
819.495
811.611
803.585
795.426
1055.38
1055.35
1055.3
1055.21
1055.1
1054.97
1054.8
1054.61
1054.38
1054.13
1053.86
1053.55
1053.21
1052.85
1052.45
1052.03
1051.58
1051.09
1050.58
1050.03
1049.46
1048.85
1048.21
1047.53
1046.83
1046.09
1045.31
1044.5
1043.66
1042.78
1041.86
1040.9
1039.91
1038.87
1037.8
1036.68
1035.52
1034.32
1033.08
1031.79
1030.45
1029.07
1027.64
1026.15
1024.62
1023.03
1021.39
1019.69
1017.94
1016.13
1014.25
1012.31
1010.31
1008.24
1006.1
1003.89
1001.61
999.247
996.809
994.289
991.686
988.997
986.218
983.346
980.379
977.314
974.146
970.873
967.491
963.996
960.385
956.655
952.801
948.819
944.707
940.459
936.073
931.544
926.869
922.044
917.066
911.931
906.638
901.182
895.563
889.777
883.823
877.701
871.409
864.949
858.32
851.525
844.566
837.445
830.168
822.737
815.159
807.441
799.588
791.609
1051.11
1051.08
1051.02
1050.94
1050.83
1050.68
1050.51
1050.32
1050.09
1049.83
1049.55
1049.24
1048.89
1048.52
1048.12
1047.68
1047.22
1046.73
1046.2
1045.64
1045.05
1044.43
1043.78
1043.09
1042.37
1041.61
1040.82
1039.99
1039.13
1038.23
1037.29
1036.32
1035.3
1034.25
1033.15
1032.01
1030.83
1029.61
1028.34
1027.03
1025.67
1024.26
1022.8
1021.29
1019.73
1018.12
1016.45
1014.72
1012.94
1011.09
1009.19
1007.22
1005.19
1003.09
1000.92
998.68
996.366
993.977
991.509
988.96
986.328
983.61
980.803
977.905
974.912
971.821
968.63
965.334
961.932
958.419
954.792
951.047
947.182
943.192
939.075
934.826
930.442
925.92
921.256
916.448
911.493
906.386
901.127
895.713
890.141
884.411
878.521
872.47
866.259
859.887
853.356
846.667
839.823
832.827
825.682
818.393
810.965
803.404
795.717
787.911
1046.86
1046.84
1046.78
1046.69
1046.58
1046.43
1046.26
1046.06
1045.83
1045.56
1045.27
1044.95
1044.6
1044.22
1043.81
1043.37
1042.9
1042.39
1041.85
1041.29
1040.68
1040.05
1039.38
1038.68
1037.94
1037.17
1036.37
1035.52
1034.64
1033.72
1032.77
1031.77
1030.74
1029.66
1028.55
1027.39
1026.19
1024.94
1023.65
1022.31
1020.93
1019.5
1018.01
1016.48
1014.89
1013.25
1011.56
1009.8
1007.99
1006.12
1004.19
1002.2
1000.14
998.008
995.811
993.543
991.202
988.785
986.29
983.714
981.056
978.312
975.48
972.558
969.542
966.429
963.218
959.903
956.484
952.955
949.315
945.56
941.687
937.693
933.574
929.327
924.949
920.437
915.789
911
906.07
900.994
895.772
890.401
884.879
879.206
873.38
867.401
861.269
854.984
848.549
841.964
835.232
828.356
821.34
814.188
806.904
799.494
791.965
784.324
1042.65
1042.62
1042.56
1042.47
1042.36
1042.21
1042.03
1041.83
1041.59
1041.32
1041.03
1040.7
1040.34
1039.95
1039.53
1039.08
1038.6
1038.09
1037.54
1036.96
1036.35
1035.7
1035.02
1034.3
1033.55
1032.77
1031.95
1031.09
1030.19
1029.26
1028.28
1027.27
1026.22
1025.12
1023.99
1022.81
1021.59
1020.32
1019.01
1017.65
1016.24
1014.78
1013.28
1011.72
1010.11
1008.44
1006.72
1004.95
1003.11
1001.22
999.258
997.236
995.15
992.996
990.774
988.48
986.113
983.671
981.151
978.551
975.869
973.102
970.248
967.305
964.268
961.137
957.908
954.578
951.144
947.604
943.954
940.192
936.314
932.318
928.201
923.959
919.59
915.092
910.461
905.695
900.792
895.749
890.566
885.239
879.769
874.153
868.391
862.484
856.431
850.233
843.892
837.408
830.786
824.027
817.135
810.114
802.968
795.704
788.327
780.842
1038.46
1038.43
1038.37
1038.28
1038.17
1038.02
1037.84
1037.62
1037.38
1037.11
1036.81
1036.48
1036.11
1035.72
1035.29
1034.83
1034.34
1033.82
1033.26
1032.67
1032.04
1031.38
1030.69
1029.96
1029.2
1028.4
1027.56
1026.69
1025.78
1024.83
1023.84
1022.81
1021.74
1020.62
1019.47
1018.27
1017.03
1015.74
1014.41
1013.03
1011.6
1010.12
1008.59
1007.01
1005.38
1003.69
1001.95
1000.15
998.288
996.368
994.387
992.342
990.231
988.054
985.807
983.49
981.099
978.634
976.092
973.47
970.767
967.98
965.106
962.144
959.09
955.943
952.699
949.356
945.911
942.362
938.705
934.939
931.059
927.065
922.952
918.718
914.361
909.879
905.268
900.527
895.653
890.646
885.502
880.222
874.803
869.246
863.549
857.713
851.738
845.625
839.376
832.992
826.476
819.83
813.058
806.164
799.152
792.027
784.795
777.461
1034.31
1034.28
1034.22
1034.13
1034
1033.85
1033.67
1033.45
1033.21
1032.93
1032.63
1032.29
1031.92
1031.51
1031.08
1030.61
1030.11
1029.58
1029.01
1028.41
1027.77
1027.1
1026.4
1025.66
1024.88
1024.07
1023.22
1022.33
1021.4
1020.44
1019.43
1018.38
1017.3
1016.17
1014.99
1013.78
1012.52
1011.21
1009.86
1008.46
1007.01
1005.51
1003.96
1002.36
1000.7
998.995
997.23
995.407
993.525
991.583
989.579
987.512
985.379
983.18
980.912
978.573
976.161
973.675
971.112
968.471
965.749
962.943
960.052
957.074
954.006
950.845
947.589
944.236
940.783
937.227
933.566
929.798
925.92
921.929
917.824
913.601
909.258
904.794
900.205
895.491
890.649
885.678
880.576
875.342
869.976
864.478
858.845
853.08
847.183
841.154
834.995
828.708
822.295
815.759
809.103
802.332
795.448
788.457
781.365
774.175
1030.18
1030.15
1030.09
1030
1029.87
1029.72
1029.53
1029.31
1029.07
1028.78
1028.47
1028.13
1027.75
1027.34