/*--------------------------------*- C++ -*----------------------------------*\
  =========                 |
  \\      /  F ield         | OpenFOAM: The Open Source CFD Toolbox
   \\    /   O peration     | Website:  https://openfoam.org
    \\  /    A nd           | Version:  7
     \\/     M anipulation  |
\*---------------------------------------------------------------------------*/
FoamFile
{
    version     2.0;
    format      ascii;
    class       volVectorField;
    location    "0.4/solid";
    object      qSolid;
}
// * * * * * * * * * * * * * * * * * * * * * * * * * * * * * * * * * * * * * //

dimensions      [0 -1 0 1 0 0 0];

internalField   nonuniform List<vector> 
400
(
(-0.449183 -31.6851 -0)
(-0.857855 -32.974 -0)
(-1.29035 -35.0926 -0)
(-1.75978 -38.0986 -0)
(-2.28155 -42.0796 -0)
(-2.87381 -47.154 -0)
(-3.56039 -53.4803 -0)
(-4.37345 -61.2691 -0)
(-5.35823 -70.8026 -0)
(-6.58161 -82.4635 -0)
(-8.14808 -96.7858 -0)
(-10.2304 -114.54 -0)
(-13.1337 -136.887 -0)
(-17.4427 -165.669 -0)
(-24.4049 -204.004 -0)
(-37.0724 -257.583 -0)
(-64.2277 -337.806 -0)
(-135.712 -470.164 -0)
(-368.667 -719.186 -0)
(-1275.76 -1270.7 -0)
(-1.33535 -30.8919 -0)
(-2.54955 -32.1454 -0)
(-3.83419 -34.2046 -0)
(-5.2273 -37.1243 -0)
(-6.77386 -40.9866 -0)
(-8.52682 -45.902 -0)
(-10.5547 -52.0174 -0)
(-12.9489 -59.5246 -0)
(-15.8362 -68.6753 -0)
(-19.4017 -79.8024 -0)
(-23.9283 -93.3542 -0)
(-29.8703 -109.947 -0)
(-37.9954 -130.451 -0)
(-49.6749 -156.116 -0)
(-67.5092 -188.76 -0)
(-96.7293 -230.939 -0)
(-148.354 -285.67 -0)
(-245.667 -353.501 -0)
(-431.867 -416.695 -0)
(-734.359 -363.608 -0)
(-2.18559 -29.3277 -0)
(-4.17058 -30.5125 -0)
(-6.26921 -32.456 -0)
(-8.54173 -35.2077 -0)
(-11.0593 -38.8402 -0)
(-13.9046 -43.4501 -0)
(-17.183 -49.1626 -0)
(-21.0314 -56.1366 -0)
(-25.6361 -64.5716 -0)
(-31.2606 -74.7168 -0)
(-38.293 -86.8814 -0)
(-47.3271 -101.444 -0)
(-59.3027 -118.853 -0)
(-75.7522 -139.585 -0)
(-99.2277 -163.982 -0)
(-133.982 -191.743 -0)
(-186.79 -220.434 -0)
(-266.737 -241.477 -0)
(-378.774 -230.483 -0)
(-495.454 -130.646 -0)
(-2.97782 -27.0363 -0)
(-5.67785 -28.1219 -0)
(-8.52943 -29.8992 -0)
(-11.6115 -32.4105 -0)
(-15.0162 -35.7164 -0)
(-18.8493 -39.8956 -0)
(-23.2413 -45.0465 -0)
(-28.3579 -51.2879 -0)
(-34.4163 -58.758 -0)
(-41.7114 -67.6118 -0)
(-50.6559 -78.0101 -0)
(-61.8425 -90.0954 -0)
(-76.1359 -103.934 -0)
(-94.8036 -119.388 -0)
(-119.667 -135.84 -0)
(-153.181 -151.617 -0)
(-198.087 -162.845 -0)
(-255.717 -161.488 -0)
(-321.036 -133.116 -0)
(-373.23 -59.1385 -0)
(-3.69221 -24.0804 -0)
(-7.03346 -25.0403 -0)
(-10.5579 -26.6085 -0)
(-14.3589 -28.8189 -0)
(-18.5443 -31.7193 -0)
(-23.2347 -35.3694 -0)
(-28.5752 -39.8401 -0)
(-34.7428 -45.2103 -0)
(-41.96 -51.5609 -0)
(-50.5127 -58.9622 -0)
(-60.7767 -67.4521 -0)
(-73.2508 -76.9935 -0)
(-88.5949 -87.3985 -0)
(-107.659 -98.1918 -0)
(-131.457 -108.374 -0)
(-160.987 -116.04 -0)
(-196.661 -117.842 -0)
(-237.008 -108.516 -0)
(-276.424 -81.3536 -0)
(-303.2 -31.9305 -0)
(-4.31188 -20.5385 -0)
(-8.20594 -21.3511 -0)
(-12.3081 -22.6755 -0)
(-16.7223 -24.5376 -0)
(-21.5667 -26.9726 -0)
(-26.97 -30.0226 -0)
(-33.0822 -33.7341 -0)
(-40.0787 -38.1526 -0)
(-48.1682 -43.313 -0)
(-57.6026 -49.2243 -0)
(-68.6872 -55.8426 -0)
(-81.7889 -63.028 -0)
(-97.3342 -70.475 -0)
(-115.779 -77.6068 -0)
(-137.515 -83.4249 -0)
(-162.648 -86.3268 -0)
(-190.563 -83.9661 -0)
(-219.229 -73.3788 -0)
(-244.451 -51.8523 -0)
(-259.946 -19.1604 -0)
(-4.82309 -16.5024 -0)
(-9.1704 -17.1507 -0)
(-13.7444 -18.2048 -0)
(-18.656 -19.6835 -0)
(-24.0293 -21.6108 -0)
(-29.9963 -24.0143 -0)
(-36.7052 -26.9213 -0)
(-44.3217 -30.3529 -0)
(-53.0317 -34.3143 -0)
(-63.0423 -38.7793 -0)
(-74.5804 -43.6661 -0)
(-87.8832 -48.8009 -0)
(-103.174 -53.8668 -0)
(-120.609 -58.3355 -0)
(-140.177 -61.3918 -0)
(-161.528 -61.8761 -0)
(-183.713 -58.3169 -0)
(-204.894 -49.1813 -0)
(-222.205 -33.5163 -0)
(-232.187 -12.0191 -0)
(-5.21524 -12.0733 -0)
(-9.90832 -12.5446 -0)
(-14.8409 -13.3097 -0)
(-20.1283 -14.3808 -0)
(-25.8975 -15.773 -0)
(-32.2805 -17.5027 -0)
(-39.4208 -19.5839 -0)
(-47.4717 -22.0234 -0)
(-56.5947 -24.8121 -0)
(-66.9544 -27.9127 -0)
(-78.7088 -31.2416 -0)
(-91.9895 -34.6429 -0)
(-106.869 -37.8556 -0)
(-123.304 -40.4767 -0)
(-141.056 -41.9307 -0)
(-159.573 -41.469 -0)
(-177.868 -38.2441 -0)
(-194.428 -31.5133 -0)
(-207.289 -21.0125 -0)
(-214.411 -7.41897 -0)
(-5.48074 -7.35909 -0)
(-10.4068 -7.64516 -0)
(-15.5805 -8.10878 -0)
(-21.1192 -8.75692 -0)
(-27.1512 -9.59771 -0)
(-33.8072 -10.6395 -0)
(-41.2259 -11.8884 -0)
(-49.5499 -13.3448 -0)
(-58.921 -14.9979 -0)
(-69.4719 -16.8179 -0)
(-81.3105 -18.7448 -0)
(-94.4972 -20.6734 -0)
(-109.008 -22.436 -0)
(-124.684 -23.7852 -0)
(-141.169 -24.3852 -0)
(-157.841 -23.8252 -0)
(-173.758 -21.6771 -0)
(-187.662 -17.6155 -0)
(-198.111 -11.6012 -0)
(-203.756 -4.06326 -0)
(-5.61469 -2.47228 -0)
(-10.658 -2.56821 -0)
(-15.9527 -2.72344 -0)
(-21.6173 -2.94039 -0)
(-27.7801 -3.22146 -0)
(-34.5712 -3.56926 -0)
(-42.126 -3.98539 -0)
(-50.5811 -4.46938 -0)
(-60.0678 -5.01671 -0)
(-70.7013 -5.61619 -0)
(-82.5643 -6.24619 -0)
(-95.6807 -6.86988 -0)
(-109.981 -7.42976 -0)
(-125.254 -7.84291 -0)
(-141.096 -7.99954 -0)
(-156.865 -7.76964 -0)
(-171.658 -7.02343 -0)
(-184.352 -5.6705 -0)
(-193.736 -3.71356 -0)
(-198.746 -1.29614 -0)
(-5.61472 2.47234 -0)
(-10.658 2.56812 -0)
(-15.9527 2.72349 -0)
(-21.6173 2.94034 -0)
(-27.7801 3.22148 -0)
(-34.5712 3.56931 -0)
(-42.126 3.98543 -0)
(-50.5812 4.46935 -0)
(-60.0678 5.0166 -0)
(-70.7013 5.61605 -0)
(-82.5642 6.24607 -0)
(-95.6807 6.86979 -0)
(-109.981 7.4297 -0)
(-125.254 7.84287 -0)
(-141.096 7.99953 -0)
(-156.865 7.76965 -0)
(-171.658 7.02346 -0)
(-184.352 5.67052 -0)
(-193.736 3.71358 -0)
(-198.746 1.29614 -0)
(-5.48084 7.35915 -0)
(-10.4069 7.64508 -0)
(-15.5805 8.10883 -0)
(-21.1193 8.75688 -0)
(-27.1511 9.59773 -0)
(-33.8072 10.6396 -0)
(-41.226 11.8884 -0)
(-49.55 13.3447 -0)
(-58.9211 14.9978 -0)
(-69.4719 16.8178 -0)
(-81.3105 18.7446 -0)
(-94.4971 20.6733 -0)
(-109.008 22.4359 -0)
(-124.684 23.7852 -0)
(-141.169 24.3851 -0)
(-157.841 23.8252 -0)
(-173.758 21.6771 -0)
(-187.662 17.6155 -0)
(-198.111 11.6012 -0)
(-203.756 4.06327 -0)
(-5.21542 12.0733 -0)
(-9.90833 12.5446 -0)
(-14.8409 13.3098 -0)
(-20.1284 14.3807 -0)
(-25.8974 15.773 -0)
(-32.2805 17.5028 -0)
(-39.4209 19.584 -0)
(-47.4719 22.0234 -0)
(-56.5948 24.812 -0)
(-66.9544 27.9126 -0)
(-78.7087 31.2415 -0)
(-91.9895 34.6428 -0)
(-106.869 37.8555 -0)
(-123.304 40.4767 -0)
(-141.056 41.9307 -0)
(-159.573 41.469 -0)
(-177.868 38.2441 -0)
(-194.428 31.5134 -0)
(-207.289 21.0125 -0)
(-214.411 7.41897 -0)
(-4.82333 16.5025 -0)
(-9.17042 17.1506 -0)
(-13.7443 18.2048 -0)
(-18.656 19.6834 -0)
(-24.0291 21.6108 -0)
(-29.9962 24.0144 -0)
(-36.7053 26.9214 -0)
(-44.322 30.3529 -0)
(-53.0319 34.3143 -0)
(-63.0423 38.7793 -0)
(-74.5803 43.666 -0)
(-87.8831 48.8009 -0)
(-103.174 53.8667 -0)
(-120.609 58.3355 -0)
(-140.177 61.3918 -0)
(-161.528 61.8761 -0)
(-183.713 58.3169 -0)
(-204.894 49.1814 -0)
(-222.205 33.5163 -0)
(-232.187 12.0191 -0)
(-4.31218 20.5385 -0)
(-8.20595 21.351 -0)
(-12.308 22.6755 -0)
(-16.7224 24.5375 -0)
(-21.5664 26.9725 -0)
(-26.9699 30.0226 -0)
(-33.0824 33.7342 -0)
(-40.079 38.1526 -0)
(-48.1684 43.313 -0)
(-57.6027 49.2243 -0)
(-68.6871 55.8426 -0)
(-81.7888 63.028 -0)
(-97.3342 70.475 -0)
(-115.779 77.6068 -0)
(-137.515 83.4249 -0)
(-162.648 86.3268 -0)
(-190.563 83.9661 -0)
(-219.229 73.3788 -0)
(-244.451 51.8523 -0)
(-259.946 19.1604 -0)
(-3.69254 24.0803 -0)
(-7.03345 25.0402 -0)
(-10.5578 26.6085 -0)
(-14.359 28.8189 -0)
(-18.544 31.7193 -0)
(-23.2346 35.3694 -0)
(-28.5754 39.8401 -0)
(-34.7432 45.2104 -0)
(-41.9602 51.5609 -0)
(-50.5127 58.9622 -0)
(-60.7766 67.4521 -0)
(-73.2507 76.9935 -0)
(-88.5949 87.3985 -0)
(-107.659 98.1918 -0)
(-131.457 108.374 -0)
(-160.987 116.04 -0)
(-196.661 117.842 -0)
(-237.008 108.516 -0)
(-276.424 81.3536 -0)
(-303.2 31.9305 -0)
(-2.97816 27.0363 -0)
(-5.6778 28.1218 -0)
(-8.52928 29.8992 -0)
(-11.6116 32.4105 -0)
(-15.0159 35.7164 -0)
(-18.8491 39.8956 -0)
(-23.2414 45.0465 -0)
(-28.3582 51.2879 -0)
(-34.4165 58.7581 -0)
(-41.7114 67.6118 -0)
(-50.6559 78.0102 -0)
(-61.8424 90.0955 -0)
(-76.1358 103.934 -0)
(-94.8035 119.388 -0)
(-119.667 135.84 -0)
(-153.181 151.617 -0)
(-198.087 162.845 -0)
(-255.717 161.488 -0)
(-321.036 133.116 -0)
(-373.23 59.1385 -0)
(-2.18592 29.3277 -0)
(-4.17055 30.5126 -0)
(-6.26907 32.456 -0)
(-8.5418 35.2077 -0)
(-11.059 38.8402 -0)
(-13.9044 43.4501 -0)
(-17.1831 49.1626 -0)
(-21.0316 56.1367 -0)
(-25.6363 64.5717 -0)
(-31.2606 74.7169 -0)
(-38.293 86.8814 -0)
(-47.3271 101.444 -0)
(-59.3026 118.854 -0)
(-75.7521 139.585 -0)
(-99.2276 163.982 -0)
(-133.982 191.743 -0)
(-186.79 220.434 -0)
(-266.737 241.477 -0)
(-378.774 230.483 -0)
(-495.454 130.646 -0)
(-1.33559 30.8919 -0)
(-2.54955 32.1457 -0)
(-3.83413 34.2046 -0)
(-5.22737 37.1244 -0)
(-6.7736 40.9865 -0)
(-8.52662 45.9019 -0)
(-10.5548 52.0173 -0)
(-12.9491 59.5246 -0)
(-15.8364 68.6753 -0)
(-19.4017 79.8025 -0)
(-23.9283 93.3543 -0)
(-29.8703 109.947 -0)
(-37.9954 130.451 -0)
(-49.6748 156.116 -0)
(-67.5091 188.76 -0)
(-96.7292 230.939 -0)
(-148.354 285.67 -0)
(-245.667 353.501 -0)
(-431.867 416.695 -0)
(-734.359 363.608 -0)
(-0.449274 31.6851 -0)
(-0.857878 32.9743 -0)
(-1.29038 35.0925 -0)
(-1.75984 38.0988 -0)
(-2.28142 42.0797 -0)
(-2.87369 47.1539 -0)
(-3.5604 53.48 -0)
(-4.37356 61.269 -0)
(-5.35831 70.8027 -0)
(-6.58162 82.4637 -0)
(-8.14806 96.786 -0)
(-10.2304 114.54 -0)
(-13.1337 136.887 -0)
(-17.4427 165.669 -0)
(-24.4048 204.004 -0)
(-37.0724 257.583 -0)
(-64.2277 337.806 -0)
(-135.712 470.164 -0)
(-368.667 719.186 -0)
(-1275.76 1270.7 -0)
)
;

boundaryField
{
    topWall
    {
        type            extrapolatedCalculated;
        value           nonuniform List<vector> 
20
(
(-0.449274 31.8847 -0)
(-0.857878 33.183 -0)
(-1.29038 35.3162 -0)
(-1.75984 38.3445 -0)
(-2.28142 42.3556 -0)
(-2.87369 47.4702 -0)
(-3.5604 53.8503 -0)
(-4.37356 61.7118 -0)
(-5.35831 71.3446 -0)
(-6.58162 83.145 -0)
(-8.14806 97.671 -0)
(-10.2304 115.737 -0)
(-13.1337 138.593 -0)
(-17.4427 168.272 -0)
(-24.4048 208.363 -0)
(-37.0724 265.891 -0)
(-64.2277 356.653 -0)
(-135.712 522.802 -0)
(-368.667 899.503 -0)
(-1275.76 1997.47 -0)
)
;
    }
    rightWall
    {
        type            extrapolatedCalculated;
        value           nonuniform List<vector> 
20
(
(-2002.53 -1270.7 -0)
(-914.677 -363.608 -0)
(-548.098 -130.646 -0)
(-392.094 -59.1385 -0)
(-311.544 -31.9305 -0)
(-264.372 -19.1604 -0)
(-234.903 -12.0191 -0)
(-216.295 -7.41897 -0)
(-205.227 -4.06326 -0)
(-200.042 -1.29614 -0)
(-200.042 1.29614 -0)
(-205.227 4.06327 -0)
(-216.295 7.41897 -0)
(-234.903 12.0191 -0)
(-264.372 19.1604 -0)
(-311.544 31.9305 -0)
(-392.094 59.1385 -0)
(-548.098 130.646 -0)
(-914.677 363.608 -0)
(-2002.53 1270.7 -0)
)
;
    }
    bottomWall
    {
        type            extrapolatedCalculated;
        value           nonuniform List<vector> 
20
(
(-0.449183 -31.8849 -0)
(-0.857855 -33.1828 -0)
(-1.29035 -35.3163 -0)
(-1.75978 -38.3442 -0)
(-2.28155 -42.3554 -0)
(-2.87381 -47.4704 -0)
(-3.56039 -53.8507 -0)
(-4.37345 -61.7119 -0)
(-5.35823 -71.3444 -0)
(-6.58161 -83.1449 -0)
(-8.14808 -97.6709 -0)
(-10.2304 -115.737 -0)
(-13.1337 -138.593 -0)
(-17.4427 -168.272 -0)
(-24.4049 -208.363 -0)
(-37.0724 -265.891 -0)
(-64.2277 -356.653 -0)
(-135.712 -522.802 -0)
(-368.667 -899.503 -0)
(-1275.76 -1997.47 -0)
)
;
    }
    frontAndBack
    {
        type            empty;
    }
    solid_to_air
    {
        type            extrapolatedCalculated;
        value           nonuniform List<vector> 
20
(
(-0.249425 -31.6851 -0)
(-0.741827 -30.8919 -0)
(-1.2151 -29.3277 -0)
(-1.65724 -27.0363 -0)
(-2.05727 -24.0804 -0)
(-2.40552 -20.5385 -0)
(-2.69386 -16.5024 -0)
(-2.91578 -12.0733 -0)
(-3.06641 -7.35909 -0)
(-3.14253 -2.47228 -0)
(-3.14252 2.47234 -0)
(-3.06641 7.35915 -0)
(-2.91577 12.0733 -0)
(-2.69385 16.5025 -0)
(-2.40551 20.5385 -0)
(-2.05726 24.0803 -0)
(-1.65724 27.0363 -0)
(-1.21511 29.3277 -0)
(-0.741826 30.8919 -0)
(-0.249417 31.6851 -0)
)
;
    }
}


// ************************************************************************* //
