# Probe 0 (0 3.5e-05 0.025)
# Probe 1 (0.0005 3.5e-05 0.025)
# Probe 2 (0.001 3.5e-05 0.025)
# Probe 3 (0.0015 3.5e-05 0.025)
# Probe 4 (0.002 3.5e-05 0.025)
# Probe 5 (0.003 3.5e-05 0.025)
# Probe 6 (0.004 3.5e-05 0.025)
# Probe 7 (0.005 3.5e-05 0.025)
# Probe 8 (0.006 3.5e-05 0.025)
# Probe 9 (0.007 3.5e-05 0.025)
# Probe 10 (0.008 3.5e-05 0.025)
# Probe 11 (0.009 3.5e-05 0.025)
# Probe 12 (0.01 3.5e-05 0.025)
# Time        0             1             2             3             4             5             6             7             8             9             10            11            12           
1e-12         (1.78645e-17 -6.86106e-18 0) (1.39032e-18 -5.12389e-19 0) (6.48926e-19 -2.91158e-19 0) (4.53566e-19 -2.51273e-19 0) (3.0861e-19 -2.14409e-19 0) (1.62437e-19 -1.61481e-19 0) (9.32788e-20 -1.23685e-19 0) (5.65919e-20 -9.62601e-20 0) (3.58459e-20 -7.63248e-20 0) (2.35517e-20 -6.17245e-20 0) (1.5983e-20 -5.09273e-20 0) (1.11535e-20 -4.28262e-20 0) (7.96861e-21 -3.66806e-20 0)
