# Probe 0 (0 3.5e-05 0.025)
# Probe 1 (0.0005 3.5e-05 0.025)
# Probe 2 (0.001 3.5e-05 0.025)
# Probe 3 (0.0015 3.5e-05 0.025)
# Probe 4 (0.002 3.5e-05 0.025)
# Probe 5 (0.003 3.5e-05 0.025)
# Probe 6 (0.004 3.5e-05 0.025)
# Probe 7 (0.005 3.5e-05 0.025)
# Probe 8 (0.006 3.5e-05 0.025)
# Probe 9 (0.007 3.5e-05 0.025)
# Probe 10 (0.008 3.5e-05 0.025)
# Probe 11 (0.009 3.5e-05 0.025)
# Probe 12 (0.01 3.5e-05 0.025)
# Time        0             1             2             3             4             5             6             7             8             9             10            11            12           
1e-12         1e+13         1e+13         1e+13         1e+13         1e+13         1e+13         1e+13         1e+13         1e+13         1e+13         1e+13         1e+13         1e+13        
