/*--------------------------------*- C++ -*----------------------------------*\
  =========                 |
  \\      /  F ield         | OpenFOAM: The Open Source CFD Toolbox
   \\    /   O peration     | Website:  https://openfoam.org
    \\  /    A nd           | Version:  7
     \\/     M anipulation  |
\*---------------------------------------------------------------------------*/
FoamFile
{
    version     2.0;
    format      ascii;
    class       volScalarField;
    location    "0.0436581";
    object      voltR;
}
// * * * * * * * * * * * * * * * * * * * * * * * * * * * * * * * * * * * * * //

dimensions      [1 2 -3 0 0 -1 0];

internalField   nonuniform List<scalar> 
58002
(
5631.22
5626.48
5617.82
5605.04
5587.65
5564.93
5536.06
5500.08
5456
5402.83
5339.72
5266.07
5181.73
5087.1
4983.29
4872.15
4756.18
4638.33
4521.76
4409.49
4304.11
4207.59
4121.14
4045.26
3979.86
3924.36
3877.89
3839.42
3807.88
3782.21
3762.05
3744.63
3726.86
3708.75
3690.27
3671.41
3652.17
3632.53
3612.48
3592
3571.08
3549.7
3527.86
3505.52
3482.67
3459.3
3435.38
3410.89
3385.82
3360.13
3333.8
3306.81
3279.13
3250.72
3221.57
3191.62
3160.86
3129.23
3096.71
3063.24
3028.78
2993.28
2956.68
2918.94
2879.97
2839.73
2798.12
2755.08
2710.51
2664.32
2616.4
2566.64
2514.9
2461.05
2404.94
2346.37
2285.15
2221.07
2153.85
2083.21
2008.81
1930.27
1847.12
1758.83
1664.75
1564.1
1455.95
1339.14
1212.22
1073.41
920.491
750.834
561.637
350.95
120.319
5631.22
5626.48
5617.82
5605.04
5587.65
5564.93
5536.06
5500.08
5456
5402.84
5339.72
5266.08
5181.73
5087.1
4983.3
4872.16
4756.19
4638.34
4521.78
4409.52
4304.15
4207.63
4121.19
4045.32
3979.93
3924.43
3877.97
3839.51
3807.97
3782.3
3762.15
3744.73
3726.97
3708.85
3690.38
3671.53
3652.29
3632.65
3612.61
3592.13
3571.22
3549.84
3528
3505.67
3482.82
3459.46
3435.54
3411.06
3386
3360.32
3334
3307.01
3279.34
3250.94
3221.8
3191.86
3161.11
3129.5
3096.98
3063.53
3029.08
2993.6
2957.02
2919.29
2880.35
2840.13
2798.54
2755.53
2710.98
2664.82
2616.94
2567.21
2515.52
2461.72
2405.66
2347.15
2286
2221.98
2154.85
2084.31
2010.03
1931.62
1848.63
1760.53
1666.67
1566.3
1458.49
1342.1
1215.71
1077.55
925.403
756.566
567.943
356.801
123.254
5631.22
5626.48
5617.82
5605.04
5587.65
5564.93
5536.06
5500.08
5456
5402.84
5339.72
5266.08
5181.73
5087.1
4983.3
4872.17
4756.21
4638.37
4521.82
4409.57
4304.21
4207.71
4121.28
4045.43
3980.06
3924.58
3878.13
3839.68
3808.14
3782.49
3762.34
3744.93
3727.17
3709.07
3690.6
3671.75
3652.52
3632.9
3612.86
3592.39
3571.48
3550.12
3528.29
3505.96
3483.13
3459.78
3435.88
3411.41
3386.36
3360.69
3334.39
3307.42
3279.76
3251.39
3222.26
3192.35
3161.61
3130.03
3097.54
3064.11
3029.69
2994.24
2957.69
2920.01
2881.1
2840.92
2799.39
2756.42
2711.94
2665.84
2618.02
2568.37
2516.76
2463.05
2407.09
2348.7
2287.68
2223.82
2156.86
2086.51
2012.46
1934.32
1851.64
1763.91
1670.51
1570.69
1463.55
1348
1222.66
1085.79
935.212
768.101
580.859
369.228
129.988
5631.22
5626.48
5617.82
5605.04
5587.65
5564.93
5536.06
5500.08
5456
5402.84
5339.73
5266.08
5181.74
5087.11
4983.32
4872.19
4756.23
4638.41
4521.87
4409.64
4304.31
4207.84
4121.43
4045.6
3980.25
3924.79
3878.37
3839.93
3808.41
3782.77
3762.63
3745.23
3727.48
3709.39
3690.93
3672.09
3652.87
3633.26
3613.23
3592.78
3571.88
3550.54
3528.72
3506.41
3483.6
3460.26
3436.37
3411.93
3386.9
3361.25
3334.97
3308.03
3280.4
3252.05
3222.95
3193.07
3162.37
3130.82
3098.37
3064.98
3030.61
2995.2
2958.71
2921.08
2882.23
2842.11
2800.65
2757.76
2713.36
2667.35
2619.64
2570.1
2518.62
2465.05
2409.24
2351.02
2290.2
2226.56
2159.85
2089.8
2016.09
1938.34
1856.13
1768.96
1676.23
1577.22
1471.09
1356.77
1232.98
1098.06
949.871
785.54
600.931
389.754
142.803
5631.22
5626.48
5617.82
5605.04
5587.65
5564.93
5536.06
5500.08
5456
5402.84
5339.73
5266.08
5181.74
5087.12
4983.33
4872.22
4756.27
4638.47
4521.95
4409.75
4304.44
4208
4121.63
4045.83
3980.51
3925.08
3878.68
3840.27
3808.77
3783.14
3763.02
3745.63
3727.9
3709.81
3691.36
3672.55
3653.34
3633.74
3613.73
3593.29
3572.42
3551.09
3529.29
3507
3484.21
3460.9
3437.04
3412.62
3387.62
3362
3335.75
3308.84
3281.24
3252.93
3223.87
3194.03
3163.38
3131.87
3099.47
3066.14
3031.83
2996.48
2960.06
2922.5
2883.73
2843.7
2802.33
2759.54
2715.26
2669.37
2621.79
2572.4
2521.08
2467.7
2412.09
2354.11
2293.54
2230.2
2163.83
2094.17
2020.9
1943.68
1862.08
1775.64
1683.79
1585.84
1481.02
1368.33
1246.57
1114.21
969.269
808.928
628.801
420.778
166.958
5631.22
5626.48
5617.82
5605.04
5587.65
5564.93
5536.06
5500.08
5456
5402.84
5339.73
5266.09
5181.75
5087.13
4983.35
4872.25
4756.32
4638.54
4522.05
4409.88
4304.61
4208.2
4121.87
4046.12
3980.84
3925.44
3879.07
3840.69
3809.22
3783.61
3763.5
3746.13
3728.41
3710.34
3691.91
3673.11
3653.93
3634.35
3614.36
3593.94
3573.09
3551.78
3530.01
3507.75
3484.98
3461.7
3437.87
3413.48
3388.51
3362.93
3336.72
3309.85
3282.3
3254.03
3225.02
3195.23
3164.63
3133.19
3100.85
3067.59
3033.35
2998.08
2961.74
2924.27
2885.61
2845.68
2804.43
2761.77
2717.62
2671.89
2624.47
2575.27
2524.16
2471
2415.65
2357.95
2297.7
2234.72
2168.77
2099.59
2026.87
1950.29
1869.46
1783.91
1693.13
1596.49
1493.25
1382.54
1263.27
1134.07
993.183
838.119
664.857
465.24
214.609
313.087
893.585
1414.92
1879.66
2295.79
2671.61
3014.14
3329.01
3620.56
3892.24
4146.75
4386.27
4612.55
4827.06
5030.98
5225.34
5410.99
5588.67
5759
317.966
902.221
1422.84
1885.35
2299.17
2673.03
3014.01
3327.66
3618.25
3889.18
4143.08
4382.11
4607.99
4822.16
5025.8
5219.92
5405.37
5582.87
5753.05
329.397
920.74
1439.11
1896.77
2305.85
2675.77
3013.65
3324.88
3613.59
3883.01
4135.72
4373.77
4598.85
4812.35
5015.44
5209.08
5394.12
5571.26
5741.14
351.772
951.741
1464.45
1913.88
2315.58
2679.59
3012.88
3320.53
3606.45
3873.66
4124.59
4361.2
4585.09
4797.6
4999.85
5192.79
5377.22
5553.84
5723.26
395.155
999.206
1499.57
1936.43
2327.97
2684.14
3011.39
3314.4
3596.67
3861
4109.61
4344.33
4566.66
4777.87
4979.02
5171.02
5354.65
5530.58
5699.4
482.577
1067.71
1544.53
1963.77
2342.36
2688.88
3008.83
3306.2
3584.06
3844.87
4090.65
4323.06
4543.48
4753.1
4952.9
5143.75
5326.39
5501.46
5669.53
5920.87
6075
6223.47
6366.66
6504.86
6638.38
6767.46
6892.33
7013.21
7130.29
7243.74
7353.73
7460.39
7563.86
7664.27
7761.74
7856.36
7948.23
8037.45
8124.11
8208.27
8290.02
8369.43
8446.56
8521.46
8594.2
8664.83
8733.39
8799.94
8864.52
8927.16
8987.91
9046.8
9103.88
9159.15
9212.67
9264.45
9314.53
9362.92
9409.64
9454.73
9498.19
9540.05
9580.33
9619.03
9656.18
9691.78
9725.85
9758.4
9789.43
9818.96
9846.97
9873.5
9898.54
9922.1
9944.16
9964.73
9983.83
10001.4
10017.5
10032.1
10045.2
10056.8
10066.9
10075.4
10082.4
10087.8
10091.7
10093.9
10094.5
10093.5
10090.8
10086.4
10080.3
10072.4
10062.6
10051
10037.5
10022
10004.4
9984.74
9962.86
9938.67
9912.07
9882.93
9851.1
9816.4
9778.65
9737.57
9692.88
9644.21
9591.1
9532.98
9469.04
9398.25
9319.23
9230.08
5914.78
6068.79
6217.17
6360.26
6498.38
6631.82
6760.83
6885.64
7006.47
7123.5
7236.91
7346.85
7453.47
7556.91
7657.29
7754.72
7849.31
7941.16
8030.35
8116.98
8201.13
8282.86
8362.25
8439.36
8514.25
8586.97
8657.58
8726.13
8792.67
8857.24
8919.87
8980.61
9039.49
9096.55
9151.82
9205.33
9257.11
9307.17
9355.55
9402.28
9447.36
9490.82
9532.67
9572.94
9611.64
9648.79
9684.38
9718.45
9750.99
9782.02
9811.55
9839.56
9866.09
9891.13
9914.68
9936.75
9957.32
9976.41
9994.02
10010.1
10024.7
10037.8
10049.4
10059.5
10068
10075
10080.5
10084.3
10086.6
10087.2
10086.2
10083.5
10079.1
10072.9
10065
10055.3
10043.7
10030.2
10014.7
9997.19
9977.54
9955.68
9931.53
9904.96
9875.87
9844.09
9809.45
9771.77
9730.77
9686.19
9637.65
9584.72
9526.82
9463.18
9392.8
9314.33
9225.88
5902.61
6056.38
6204.55
6347.46
6485.42
6618.71
6747.59
6872.28
6992.99
7109.92
7223.23
7333.09
7439.64
7543
7643.31
7740.68
7835.22
7927.01
8016.16
8102.74
8186.85
8268.54
8347.89
8424.96
8499.82
8572.51
8643.09
8711.62
8778.13
8842.67
8905.28
8966
9024.86
9081.91
9137.16
9190.65
9242.41
9292.46
9340.83
9387.54
9432.61
9476.06
9517.91
9558.17
9596.86
9634
9669.58
9703.65
9736.19
9767.21
9796.73
9824.75
9851.27
9876.31
9899.86
9921.93
9942.5
9961.59
9979.2
9995.31
10009.9
10023
10034.6
10044.7
10053.3
10060.3
10065.7
10069.6
10071.8
10072.5
10071.5
10068.8
10064.4
10058.3
10050.4
10040.7
10029.1
10015.7
10000.2
9982.73
9963.13
9941.33
9917.24
9890.75
9861.74
9830.06
9795.54
9758
9717.18
9672.81
9624.54
9571.94
9514.48
9451.43
9381.86
9304.48
9217.47
5884.33
6037.76
6185.62
6328.26
6465.97
6599.04
6727.71
6852.22
6972.77
7089.55
7202.72
7312.45
7418.88
7522.14
7622.35
7719.63
7814.08
7905.79
7994.86
8081.38
8165.42
8247.05
8326.35
8403.37
8478.17
8550.82
8621.36
8689.85
8756.32
8820.82
8883.4
8944.09
9002.92
9059.94
9115.17
9168.63
9220.37
9270.4
9318.75
9365.44
9410.49
9453.93
9495.76
9536.01
9574.69
9611.81
9647.39
9681.44
9713.98
9745
9774.51
9802.52
9829.04
9854.08
9877.63
9899.69
9920.27
9939.36
9956.97
9973.09
9987.71
10000.8
10012.4
10022.5
10031.1
10038.1
10043.5
10047.4
10049.7
10050.4
10049.4
10046.7
10042.4
10036.3
10028.5
10018.8
10007.3
9993.86
9978.47
9961.05
9941.52
9919.8
9895.81
9869.43
9840.55
9809.02
9774.67
9737.34
9696.77
9652.71
9604.83
9552.73
9495.92
9433.74
9365.34
9289.59
9204.76
5859.94
6012.92
6160.37
6302.64
6440.02
6572.8
6701.2
6825.47
6945.8
7062.38
7175.37
7284.93
7391.2
7494.32
7594.39
7691.55
7785.88
7877.5
7966.47
8052.89
8136.85
8218.4
8297.62
8374.57
8449.31
8521.9
8592.38
8660.81
8727.23
8791.69
8854.22
8914.87
8973.67
9030.65
9085.84
9139.27
9190.98
9240.98
9289.31
9335.97
9381
9424.42
9466.23
9506.46
9545.12
9582.23
9617.8
9651.84
9684.36
9715.37
9744.88
9772.88
9799.4
9824.43
9847.98
9870.04
9890.62
9909.72
9927.33
9943.45
9958.08
9971.21
9982.83
9992.93
10001.5
10008.5
10014
10017.9
10020.2
10020.9
10019.9
10017.3
10013
10007
9999.2
9989.6
9978.14
9964.78
9949.47
9932.13
9912.7
9891.1
9867.23
9840.99
9812.28
9780.94
9746.83
9709.77
9669.54
9625.88
9578.51
9527.05
9471.08
9410
9343.12
9269.48
9187.64
5829.42
5981.83
6128.78
6270.59
6407.57
6539.98
6668.06
6792.02
6912.08
7028.4
7141.17
7250.52
7356.6
7459.53
7559.45
7656.45
7750.64
7842.12
7930.97
8017.28
8101.13
8182.58
8261.71
8338.57
8413.23
8485.74
8556.16
8624.52
8690.88
8755.28
8817.75
8878.35
8937.09
8994.03
9049.18
9102.57
9154.24
9204.21
9252.5
9299.14
9344.14
9387.53
9429.32
9469.52
9508.17
9545.26
9580.81
9614.83
9647.34
9678.34
9707.84
9735.83
9762.35
9787.38
9810.92
9832.98
9853.56
9872.66
9890.28
9906.41
9921.05
9934.19
9945.82
9955.94
9964.53
9971.58
9977.08
9981
9983.34
9984.07
9983.16
9980.59
9976.33
9970.35
9962.62
9953.08
9941.7
9928.43
9913.21
9895.98
9876.67
9855.2
9831.49
9805.43
9776.93
9745.83
9712
9675.28
9635.45
9592.29
9545.53
9494.84
9439.86
9380.1
9315.02
9243.91
9165.83
9128.4
9038.37
8957.59
8884.18
8816.72
8754.21
8695.83
8641.01
8589.28
8540.28
8493.72
8449.32
8406.9
8366.28
8327.3
8289.83
8253.75
8218.98
8185.42
8152.99
8121.61
8091.23
8061.78
8033.23
8005.5
7978.56
7952.38
7926.9
7902.12
7877.97
7854.44
7831.49
7809.12
7787.28
7765.96
7745.14
7724.79
7704.9
7685.45
7666.43
7647.81
7629.59
7611.74
7594.26
7577.14
7560.35
7543.9
7527.77
7511.94
7496.42
7481.18
7466.23
7451.55
7437.14
7422.98
7409.07
7395.41
7381.97
7368.77
7355.79
7343.03
7330.48
7318.13
7305.98
7294.03
7282.27
7270.69
7259.29
7248.07
7237.02
7226.13
7215.41
7204.85
7194.44
7184.19
7174.08
7164.12
7154.3
7144.61
7135.07
7125.65
7116.37
7107.21
7098.18
7089.27
7080.47
7071.79
7063.23
7054.78
7046.44
7038.2
7030.07
7022.04
7014.11
7006.28
6998.55
6990.92
6983.37
6975.92
6968.56
6961.28
6954.1
6946.99
6939.97
6933.04
6926.18
6919.4
6912.7
6906.07
6899.52
6893.04
6886.64
6880.31
6874.04
6867.84
6861.72
6855.65
6849.66
6843.72
6837.85
6832.04
6826.3
6820.61
6814.98
6809.41
6803.9
6798.44
6793.04
6787.69
6782.39
6777.15
6771.96
6766.83
6761.74
6756.7
6751.71
6746.77
6741.88
6737.04
6732.24
6727.48
6722.77
6718.1
6713.48
6708.9
6704.37
6699.87
6695.42
6691
6686.63
6682.3
6678
6673.74
6669.53
6665.34
6661.2
6657.09
6653.02
6648.98
6644.98
6641.01
6637.07
6633.17
6629.31
6625.47
6621.67
6617.9
6614.16
6610.45
6606.77
6603.12
6599.51
6595.92
6592.36
6588.83
6585.33
6581.86
6578.41
6574.99
6571.6
6568.23
6564.9
6561.59
6558.3
6555.04
6551.8
6548.59
6545.41
6542.24
6539.11
6535.99
6532.9
6529.84
6526.79
6523.77
6520.48
6516.59
6511.99
6506.57
6500.19
6492.71
6483.97
6473.78
6461.96
6448.33
6432.68
6414.85
6394.68
6372.05
6346.92
6319.31
6289.3
6257.12
6223.07
6187.55
6151.05
6114.13
6077.36
6041.31
6006.52
5973.45
5942.48
5913.9
5887.88
5864.52
5843.82
5825.74
5810.18
5797.02
5786.12
5777.36
5770.62
5765.88
5763.24
9125
9035.68
8955.45
8882.45
8815.29
8753.01
8694.8
8640.11
8588.49
8539.58
8493.09
8448.75
8406.38
8365.81
8326.86
8289.42
8253.38
8218.63
8185.1
8152.68
8121.32
8090.96
8061.53
8032.99
8005.27
7978.35
7952.17
7926.71
7901.93
7877.79
7854.26
7831.33
7808.96
7787.13
7765.82
7745
7724.66
7704.77
7685.33
7666.31
7647.69
7629.48
7611.63
7594.16
7577.04
7560.26
7543.81
7527.68
7511.86
7496.33
7481.1
7466.16
7451.48
7437.06
7422.91
7409
7395.34
7381.91
7368.71
7355.73
7342.97
7330.42
7318.07
7305.93
7293.98
7282.21
7270.64
7259.24
7248.02
7236.97
7226.08
7215.36
7204.8
7194.39
7184.14
7174.04
7164.07
7154.25
7144.57
7135.03
7125.62
7116.33
7107.17
7098.14
7089.23
7080.44
7071.76
7063.2
7054.75
7046.4
7038.17
7030.04
7022.01
7014.09
7006.26
6998.53
6990.89
6983.35
6975.9
6968.53
6961.26
6954.07
6946.97
6939.95
6933.01
6926.15
6919.38
6912.68
6906.05
6899.5
6893.02
6886.62
6880.28
6874.02
6867.82
6861.7
6855.63
6849.64
6843.7
6837.83
6832.03
6826.28
6820.59
6814.96
6809.39
6803.88
6798.42
6793.02
6787.67
6782.38
6777.14
6771.95
6766.81
6761.72
6756.69
6751.7
6746.76
6741.87
6737.02
6732.22
6727.47
6722.76
6718.09
6713.47
6708.89
6704.35
6699.86
6695.41
6690.99
6686.62
6682.29
6677.99
6673.73
6669.51
6665.33
6661.19
6657.08
6653.01
6648.97
6644.97
6641
6637.06
6633.16
6629.3
6625.46
6621.66
6617.89
6614.15
6610.44
6606.76
6603.12
6599.5
6595.91
6592.35
6588.82
6585.32
6581.85
6578.4
6574.98
6571.59
6568.23
6564.89
6561.58
6558.29
6555.03
6551.79
6548.59
6545.4
6542.24
6539.1
6535.99
6532.9
6529.83
6526.79
6523.76
6520.47
6516.58
6511.98
6506.56
6500.19
6492.71
6483.96
6473.77
6461.96
6448.32
6432.68
6414.84
6394.67
6372.05
6346.92
6319.3
6289.3
6257.12
6223.06
6187.55
6151.05
6114.13
6077.36
6041.31
6006.52
5973.45
5942.48
5913.9
5887.88
5864.52
5843.82
5825.74
5810.18
5797.02
5786.12
5777.36
5770.62
5765.88
5763.24
9118.24
9030.35
8951.22
8879.02
8812.45
8750.61
8692.74
8638.32
8586.91
8538.17
8491.83
8447.61
8405.34
8364.85
8325.98
8288.61
8252.62
8217.93
8184.44
8152.07
8120.75
8090.41
8061.01
8032.5
8004.81
7977.91
7951.76
7926.31
7901.55
7877.43
7853.92
7831
7808.65
7786.83
7765.53
7744.72
7724.39
7704.51
7685.08
7666.07
7647.46
7629.26
7611.42
7593.95
7576.84
7560.06
7543.62
7527.5
7511.68
7496.17
7480.94
7466
7451.32
7436.91
7422.76
7408.86
7395.2
7381.78
7368.58
7355.6
7342.84
7330.3
7317.96
7305.81
7293.87
7282.11
7270.53
7259.14
7247.92
7236.87
7225.99
7215.27
7204.71
7194.31
7184.06
7173.95
7163.99
7154.17
7144.49
7134.95
7125.54
7116.26
7107.1
7098.07
7089.16
7080.37
7071.69
7063.13
7054.68
7046.34
7038.11
7029.98
7021.95
7014.03
7006.2
6998.47
6990.83
6983.29
6975.84
6968.48
6961.21
6954.02
6946.92
6939.9
6932.97
6926.11
6919.33
6912.63
6906.01
6899.46
6892.98
6886.58
6880.24
6873.98
6867.78
6861.66
6855.6
6849.6
6843.67
6837.8
6831.99
6826.24
6820.56
6814.93
6809.36
6803.85
6798.39
6792.99
6787.64
6782.35
6777.11
6771.92
6766.78
6761.7
6756.66
6751.67
6746.73
6741.84
6737
6732.2
6727.44
6722.73
6718.07
6713.45
6708.87
6704.33
6699.84
6695.38
6690.97
6686.6
6682.26
6677.97
6673.71
6669.49
6665.31
6661.17
6657.06
6652.99
6648.95
6644.95
6640.98
6637.04
6633.14
6629.28
6625.44
6621.64
6617.87
6614.13
6610.42
6606.75
6603.1
6599.48
6595.89
6592.34
6588.81
6585.3
6581.83
6578.39
6574.97
6571.58
6568.21
6564.87
6561.56
6558.28
6555.02
6551.78
6548.57
6545.39
6542.22
6539.09
6535.97
6532.88
6529.82
6526.77
6523.75
6520.46
6516.57
6511.97
6506.55
6500.17
6492.7
6483.95
6473.76
6461.95
6448.31
6432.67
6414.84
6394.67
6372.04
6346.92
6319.3
6289.3
6257.11
6223.06
6187.54
6151.05
6114.13
6077.36
6041.31
6006.52
5973.45
5942.48
5913.9
5887.88
5864.52
5843.82
5825.74
5810.18
5797.02
5786.12
5777.36
5770.62
5765.88
5763.24
9108.18
9022.48
8944.97
8873.95
8808.25
8747.06
8689.69
8635.66
8584.56
8536.08
8489.94
8445.9
8403.78
8363.43
8324.67
8287.39
8251.5
8216.88
8183.46
8151.15
8119.88
8089.6
8060.25
8031.78
8004.12
7977.26
7951.14
7925.72
7900.99
7876.89
7853.41
7830.51
7808.18
7786.38
7765.1
7744.31
7723.99
7704.13
7684.71
7665.71
7647.12
7628.93
7611.1
7593.65
7576.54
7559.78
7543.35
7527.23
7511.42
7495.91
7480.69
7465.76
7451.09
7436.69
7422.54
7408.65
7395
7381.58
7368.38
7355.41
7342.66
7330.12
7317.78
7305.64
7293.7
7281.95
7270.38
7258.98
7247.77
7236.73
7225.85
7215.13
7204.58
7194.17
7183.93
7173.83
7163.87
7154.05
7144.38
7134.84
7125.43
7116.15
7106.99
7097.96
7089.06
7080.27
7071.59
7063.04
7054.59
7046.25
7038.02
7029.89
7021.87
7013.94
7006.12
6998.39
6990.75
6983.22
6975.77
6968.41
6961.13
6953.95
6946.85
6939.83
6932.9
6926.04
6919.26
6912.57
6905.94
6899.39
6892.92
6886.51
6880.18
6873.92
6867.73
6861.6
6855.54
6849.54
6843.61
6837.74
6831.94
6826.19
6820.5
6814.88
6809.31
6803.8
6798.34
6792.94
6787.59
6782.3
6777.06
6771.88
6766.74
6761.65
6756.62
6751.63
6746.69
6741.8
6736.96
6732.16
6727.4
6722.69
6718.03
6713.41
6708.83
6704.29
6699.8
6695.35
6690.94
6686.56
6682.23
6677.93
6673.68
6669.46
6665.28
6661.14
6657.03
6652.95
6648.92
6644.92
6640.95
6637.02
6633.12
6629.25
6625.42
6621.61
6617.84
6614.1
6610.4
6606.72
6603.07
6599.46
6595.87
6592.31
6588.78
6585.28
6581.81
6578.36
6574.94
6571.55
6568.19
6564.85
6561.54
6558.25
6554.99
6551.76
6548.55
6545.36
6542.2
6539.07
6535.95
6532.86
6529.8
6526.75
6523.73
6520.44
6516.55
6511.95
6506.53
6500.16
6492.68
6483.93
6473.75
6461.93
6448.3
6432.65
6414.82
6394.65
6372.03
6346.91
6319.29
6289.29
6257.11
6223.06
6187.54
6151.05
6114.12
6077.36
6041.31
6006.52
5973.45
5942.48
5913.9
5887.88
5864.52
5843.82
5825.74
5810.18
5797.02
5786.12
5777.36
5770.62
5765.88
5763.24
9094.95
9012.23
8936.84
8867.33
8802.75
8742.39
8685.66
8632.14
8581.45
8533.3
8487.44
8443.64
8401.72
8361.53
8322.92
8285.78
8250
8215.48
8182.15
8149.92
8118.73
8088.52
8059.22
8030.81
8003.21
7976.39
7950.31
7924.94
7900.24
7876.18
7852.73
7829.86
7807.55
7785.78
7764.52
7743.76
7723.46
7703.62
7684.22
7665.24
7646.67
7628.49
7610.68
7593.24
7576.14
7559.39
7542.97
7526.87
7511.07
7495.58
7480.37
7465.44
7450.79
7436.39
7422.25
7408.37
7394.72
7381.31
7368.13
7355.16
7342.42
7329.88
7317.55
7305.42
7293.48
7281.73
7270.17
7258.78
7247.57
7236.53
7225.66
7214.95
7204.39
7194
7183.76
7173.66
7163.7
7153.89
7144.22
7134.68
7125.28
7116
7106.85
7097.82
7088.92
7080.13
7071.46
7062.91
7054.46
7046.12
7037.89
7029.77
7021.75
7013.83
7006
6998.28
6990.65
6983.11
6975.66
6968.3
6961.03
6953.85
6946.75
6939.74
6932.8
6925.95
6919.17
6912.48
6905.86
6899.31
6892.83
6886.43
6880.1
6873.84
6867.65
6861.52
6855.46
6849.47
6843.54
6837.67
6831.87
6826.12
6820.44
6814.81
6809.24
6803.73
6798.28
6792.88
6787.53
6782.24
6777
6771.82
6766.68
6761.6
6756.56
6751.57
6746.64
6741.74
6736.9
6732.1
6727.35
6722.64
6717.98
6713.36
6708.78
6704.25
6699.75
6695.3
6690.89
6686.52
6682.18
6677.89
6673.63
6669.42
6665.24
6661.09
6656.99
6652.91
6648.88
6644.88
6640.91
6636.98
6633.08
6629.21
6625.38
6621.58
6617.81
6614.07
6610.36
6606.68
6603.04
6599.42
6595.84
6592.28
6588.75
6585.25
6581.78
6578.33
6574.91
6571.52
6568.16
6564.82
6561.51
6558.22
6554.96
6551.73
6548.52
6545.34
6542.17
6539.04
6535.93
6532.84
6529.77
6526.73
6523.71
6520.42
6516.52
6511.93
6506.51
6500.13
6492.66
6483.91
6473.73
6461.91
6448.28
6432.64
6414.81
6394.64
6372.02
6346.89
6319.28
6289.28
6257.1
6223.05
6187.53
6151.04
6114.12
6077.35
6041.31
6006.51
5973.45
5942.48
5913.9
5887.88
5864.52
5843.82
5825.74
5810.18
5797.02
5786.12
5777.36
5770.62
5765.88
5763.24
9078.82
8999.86
8927.01
8859.29
8796.02
8736.66
8680.71
8627.8
8577.61
8529.86
8484.35
8440.83
8399.15
8359.18
8320.75
8283.77
8248.13
8213.74
8180.53
8148.4
8117.3
8087.17
8057.95
8029.6
8002.07
7975.3
7949.28
7923.96
7899.31
7875.29
7851.87
7829.04
7806.77
7785.04
7763.81
7743.07
7722.8
7702.98
7683.61
7664.65
7646.1
7627.94
7610.15
7592.72
7575.65
7558.91
7542.51
7526.42
7510.64
7495.15
7479.96
7465.05
7450.4
7436.02
7421.89
7408.01
7394.38
7380.98
7367.8
7354.85
7342.11
7329.59
7317.26
7305.14
7293.21
7281.46
7269.91
7258.53
7247.32
7236.29
7225.42
7214.72
7204.17
7193.78
7183.54
7173.45
7163.5
7153.69
7144.02
7134.49
7125.09
7115.82
7106.67
7097.65
7088.75
7079.96
7071.3
7062.75
7054.3
7045.97
7037.74
7029.62
7021.6
7013.68
7005.86
6998.14
6990.51
6982.98
6975.53
6968.18
6960.91
6953.73
6946.63
6939.62
6932.69
6925.83
6919.06
6912.37
6905.75
6899.2
6892.73
6886.33
6880
6873.74
6867.55
6861.43
6855.37
6849.38
6843.45
6837.58
6831.78
6826.03
6820.35
6814.73
6809.16
6803.65
6798.2
6792.8
6787.45
6782.16
6776.93
6771.74
6766.61
6761.52
6756.49
6751.5
6746.57
6741.68
6736.83
6732.04
6727.29
6722.58
6717.92
6713.3
6708.72
6704.19
6699.69
6695.24
6690.83
6686.46
6682.13
6677.83
6673.58
6669.36
6665.18
6661.04
6656.93
6652.86
6648.83
6644.83
6640.86
6636.93
6633.03
6629.16
6625.33
6621.53
6617.76
6614.02
6610.32
6606.64
6602.99
6599.38
6595.79
6592.24
6588.71
6585.21
6581.73
6578.29
6574.87
6571.48
6568.12
6564.78
6561.47
6558.19
6554.93
6551.69
6548.49
6545.3
6542.14
6539
6535.89
6532.8
6529.74
6526.69
6523.67
6520.38
6516.49
6511.9
6506.48
6500.1
6492.63
6483.88
6473.7
6461.89
6448.25
6432.61
6414.78
6394.62
6372
6346.88
6319.26
6289.27
6257.09
6223.04
6187.53
6151.04
6114.12
6077.35
6041.3
6006.51
5973.45
5942.48
5913.9
5887.88
5864.52
5843.82
5825.74
5810.18
5797.02
5786.12
5777.36
5770.62
5765.88
5763.24
5631.22
5626.48
5617.82
5605.04
5587.65
5564.93
5536.06
5500.08
5456
5402.84
5339.73
5266.09
5181.76
5087.15
4983.38
4872.29
4756.38
4638.62
4522.16
4410.03
4304.81
4208.45
4122.17
4046.46
3981.23
3925.88
3879.55
3841.2
3809.75
3784.17
3764.08
3746.73
3729.03
3710.98
3692.57
3673.79
3654.63
3635.07
3615.1
3594.72
3573.89
3552.61
3530.87
3508.64
3485.91
3462.66
3438.86
3414.51
3389.59
3364.05
3337.88
3311.06
3283.56
3255.35
3226.4
3196.67
3166.14
3134.76
3102.5
3069.32
3035.17
3000
2963.76
2926.4
2887.85
2848.05
2806.94
2764.43
2720.45
2674.89
2627.68
2578.7
2527.83
2474.94
2419.89
2362.53
2302.67
2240.12
2174.66
2106.04
2033.98
1958.16
1878.21
1793.72
1704.19
1609.07
1507.69
1399.27
1282.87
1157.35
1021.26
872.647
708.647
524.669
314.652
5631.22
5626.48
5617.82
5605.04
5587.65
5564.93
5536.06
5500.08
5456.01
5402.84
5339.74
5266.1
5181.77
5087.17
4983.41
4872.33
4756.45
4638.72
4522.3
4410.21
4305.04
4208.73
4122.51
4046.86
3981.68
3926.38
3880.1
3841.79
3810.38
3784.82
3764.76
3747.43
3729.75
3711.72
3693.34
3674.58
3655.44
3635.91
3615.98
3595.62
3574.82
3553.58
3531.87
3509.68
3486.98
3463.77
3440.02
3415.72
3390.84
3365.35
3339.24
3312.48
3285.03
3256.89
3228
3198.35
3167.89
3136.6
3104.43
3071.34
3037.29
3002.22
2966.1
2928.87
2890.46
2850.81
2809.86
2767.52
2723.73
2678.39
2631.41
2582.68
2532.09
2479.52
2424.82
2367.85
2308.43
2246.38
2181.48
2113.51
2042.19
1967.24
1888.3
1805
1716.89
1623.48
1524.18
1418.33
1305.16
1183.74
1053.01
911.688
758.3
591.739
415.088
5631.22
5626.48
5617.82
5605.04
5587.65
5564.93
5536.06
5500.08
5456.01
5402.84
5339.74
5266.11
5181.78
5087.19
4983.44
4872.38
4756.52
4638.83
4522.45
4410.41
4305.3
4209.06
4122.9
4047.32
3982.2
3926.96
3880.72
3842.46
3811.09
3785.57
3765.53
3748.22
3730.57
3712.57
3694.21
3675.48
3656.38
3636.88
3616.97
3596.65
3575.89
3554.68
3533.01
3510.86
3488.21
3465.05
3441.35
3417.09
3392.27
3366.84
3340.79
3314.09
3286.71
3258.64
3229.83
3200.26
3169.89
3138.69
3106.62
3073.64
3039.7
3004.76
2968.77
2931.69
2893.43
2853.95
2813.18
2771.05
2727.47
2682.37
2635.65
2587.21
2536.94
2484.72
2430.41
2373.88
2314.96
2253.46
2189.2
2121.95
2051.47
1977.48
1899.67
1817.69
1731.16
1639.62
1542.6
1439.55
1329.86
1212.85
1087.87
954.269
811.819
661.77
510.568
5631.22
5626.48
5617.82
5605.04
5587.65
5564.93
5536.06
5500.08
5456.01
5402.85
5339.75
5266.11
5181.8
5087.21
4983.48
4872.44
4756.61
4638.95
4522.62
4410.64
4305.6
4209.43
4123.34
4047.83
3982.78
3927.61
3881.43
3843.22
3811.89
3786.41
3766.4
3749.12
3731.49
3713.52
3695.19
3676.5
3657.43
3637.96
3618.09
3597.81
3577.09
3555.92
3534.3
3512.19
3489.59
3466.48
3442.83
3418.64
3393.87
3368.51
3342.52
3315.9
3288.6
3260.61
3231.88
3202.41
3172.14
3141.04
3109.08
3076.22
3042.41
3007.61
2971.77
2934.84
2896.76
2857.47
2816.9
2774.99
2731.66
2686.82
2640.39
2592.27
2542.36
2490.53
2436.66
2380.62
2322.24
2261.36
2197.8
2131.35
2061.78
1988.85
1912.26
1831.72
1746.88
1657.37
1562.8
1462.72
1356.7
1244.31
1125.25
999.445
867.569
732.139
600.127
5631.22
5626.48
5617.82
5605.04
5587.65
5564.93
5536.06
5500.09
5456.01
5402.85
5339.75
5266.12
5181.81
5087.24
4983.52
4872.51
4756.7
4639.09
4522.82
4410.9
4305.92
4209.83
4123.83
4048.4
3983.43
3928.33
3882.21
3844.06
3812.78
3787.34
3767.37
3750.11
3732.52
3714.58
3696.28
3677.62
3658.59
3639.16
3619.33
3599.09
3578.42
3557.3
3535.72
3513.67
3491.12
3468.07
3444.48
3420.35
3395.65
3370.36
3344.45
3317.9
3290.69
3262.79
3234.16
3204.78
3174.62
3143.64
3111.81
3079.08
3045.41
3010.76
2975.09
2938.34
2900.45
2861.36
2821.02
2779.36
2736.29
2691.75
2645.63
2597.87
2548.34
2496.94
2443.55
2388.04
2330.25
2270.05
2207.25
2141.66
2073.08
2001.28
1926.01
1847.01
1763.98
1676.61
1584.6
1487.63
1385.41
1277.74
1164.61
1046.4
924.362
801.505
684.168
5631.22
5626.48
5617.82
5605.04
5587.65
5564.93
5536.06
5500.09
5456.01
5402.85
5339.76
5266.13
5181.83
5087.26
4983.56
4872.58
4756.81
4639.24
4523.03
4411.18
4306.29
4210.28
4124.37
4049.03
3984.14
3929.12
3883.08
3844.98
3813.76
3788.36
3768.43
3751.2
3733.64
3715.74
3697.48
3678.86
3659.86
3640.48
3620.7
3600.5
3579.88
3558.81
3537.29
3515.29
3492.8
3469.81
3446.29
3422.23
3397.61
3372.39
3346.56
3320.1
3292.98
3265.18
3236.66
3207.39
3177.35
3146.5
3114.8
3082.21
3048.7
3014.22
2978.72
2942.17
2904.48
2865.63
2825.53
2784.13
2741.35
2697.13
2651.36
2603.98
2554.87
2503.93
2451.06
2396.12
2338.98
2279.5
2217.51
2152.85
2085.32
2014.73
1940.86
1863.47
1782.34
1697.22
1607.86
1514.08
1415.72
1312.76
1205.46
1094.48
981.396
869.252
763.413
5631.22
5626.48
5617.82
5605.04
5587.65
5564.93
5536.06
5500.09
5456.01
5402.86
5339.76
5266.14
5181.85
5087.3
4983.61
4872.65
4756.93
4639.41
4523.26
4411.49
4306.68
4210.77
4124.95
4049.71
3984.92
3929.98
3884.01
3845.99
3814.82
3789.47
3769.58
3752.39
3734.87
3717
3698.79
3680.21
3661.26
3641.92
3622.18
3602.03
3581.46
3560.45
3538.99
3517.05
3494.63
3471.71
3448.26
3424.27
3399.73
3374.6
3348.86
3322.5
3295.48
3267.78
3239.37
3210.23
3180.31
3149.6
3118.04
3085.62
3052.27
3017.97
2982.67
2946.32
2908.87
2870.25
2830.42
2789.31
2746.84
2702.96
2657.57
2610.59
2561.93
2511.5
2459.17
2404.85
2348.4
2289.68
2228.56
2164.88
2098.46
2029.15
1956.73
1881.04
1801.88
1719.06
1632.42
1541.87
1447.37
1349.07
1247.38
1143.19
1038.15
935.148
838.563
5631.22
5626.48
5617.82
5605.04
5587.65
5564.93
5536.06
5500.09
5456.02
5402.86
5339.77
5266.16
5181.87
5087.33
4983.67
4872.74
4757.05
4639.59
4523.51
4411.82
4307.11
4211.3
4125.59
4050.45
3985.76
3930.91
3885.03
3847.08
3815.97
3790.68
3770.83
3753.68
3736.19
3718.37
3700.2
3681.66
3662.76
3643.47
3623.79
3603.7
3583.18
3562.23
3540.83
3518.96
3496.61
3473.76
3450.39
3426.48
3402.03
3376.99
3351.35
3325.08
3298.17
3270.59
3242.3
3213.29
3183.51
3152.94
3121.55
3089.29
3056.13
3022.02
2986.93
2950.8
2913.59
2875.23
2835.68
2794.88
2752.75
2709.23
2664.24
2617.7
2569.52
2519.61
2467.88
2414.2
2358.48
2300.57
2240.36
2177.71
2112.46
2044.47
1973.58
1899.63
1822.49
1742.02
1658.14
1570.82
1480.14
1386.37
1290.04
1192.14
1094.32
999.163
910.223
5631.22
5626.48
5617.82
5605.04
5587.65
5564.93
5536.06
5500.09
5456.02
5402.86
5339.78
5266.17
5181.89
5087.36
4983.72
4872.83
4757.18
4639.78
4523.78
4412.18
4307.57
4211.87
4126.27
4051.25
3986.66
3931.91
3886.12
3848.25
3817.21
3791.97
3772.17
3755.06
3737.62
3719.84
3701.71
3683.23
3664.37
3645.14
3625.51
3605.48
3585.03
3564.14
3542.81
3521.01
3498.73
3475.96
3452.67
3428.86
3404.49
3379.55
3354.01
3327.86
3301.06
3273.6
3245.45
3216.57
3186.94
3156.53
3125.31
3093.23
3060.26
3026.36
2991.48
2955.6
2918.64
2880.57
2841.32
2800.84
2759.07
2715.93
2671.36
2625.28
2577.61
2528.27
2477.15
2424.16
2369.19
2312.14
2252.88
2191.3
2127.26
2060.64
1991.31
1919.16
1844.08
1765.99
1684.86
1600.75
1513.82
1424.41
1333.15
1241.06
1149.71
1061.35
978.878
5631.22
5626.48
5617.82
5605.04
5587.65
5564.93
5536.06
5500.09
5456.02
5402.87
5339.78
5266.18
5181.91
5087.4
4983.79
4872.92
4757.33
4639.99
4524.06
4412.56
4308.06
4212.48
4127
4052.1
3987.63
3932.98
3887.29
3849.5
3818.54
3793.36
3773.6
3756.54
3739.14
3721.41
3703.33
3684.9
3666.1
3646.93
3627.36
3607.39
3587
3566.18
3544.92
3523.2
3501
3478.31
3455.12
3431.39
3407.13
3382.29
3356.86
3330.82
3304.15
3276.82
3248.8
3220.08
3190.61
3160.36
3129.31
3097.43
3064.66
3030.98
2996.34
2960.71
2924.03
2886.25
2847.32
2807.18
2765.78
2723.05
2678.93
2633.34
2586.2
2537.44
2486.97
2434.69
2380.52
2324.35
2266.08
2205.61
2142.82
2077.61
2009.88
1939.54
1866.54
1790.84
1712.46
1631.51
1548.23
1463
1376.51
1289.76
1204.21
1121.81
1044.91
5631.22
5626.48
5617.82
5605.04
5587.65
5564.93
5536.06
5500.09
5456.02
5402.87
5339.79
5266.19
5181.93
5087.44
4983.85
4873.02
4757.48
4640.21
4524.37
4412.97
4308.58
4213.13
4127.78
4053
3988.66
3934.13
3888.53
3850.83
3819.95
3794.83
3775.13
3758.11
3740.76
3723.08
3705.06
3686.68
3667.94
3648.82
3629.32
3609.42
3589.1
3568.35
3547.17
3525.53
3503.42
3480.82
3457.71
3434.09
3409.93
3385.2
3359.89
3333.97
3307.43
3280.24
3252.37
3223.8
3194.49
3164.43
3133.57
3101.88
3069.33
3035.88
3001.49
2966.13
2929.73
2892.26
2853.67
2813.89
2772.89
2730.58
2686.93
2641.84
2595.27
2547.11
2497.32
2445.79
2392.44
2337.18
2279.93
2220.6
2159.08
2095.31
2029.21
1960.71
1889.8
1816.48
1740.81
1662.96
1583.2
1501.97
1419.95
1338.12
1257.79
1180.67
1108.66
5631.22
5626.48
5617.82
5605.05
5587.65
5564.93
5536.06