/*--------------------------------*- C++ -*----------------------------------*\
  =========                 |
  \\      /  F ield         | OpenFOAM: The Open Source CFD Toolbox
   \\    /   O peration     | Website:  https://openfoam.org
    \\  /    A nd           | Version:  7
     \\/     M anipulation  |
\*---------------------------------------------------------------------------*/
FoamFile
{
    version     2.0;
    format      ascii;
    class       volScalarField;
    location    "0.0436581";
    object      voltA;
}
// * * * * * * * * * * * * * * * * * * * * * * * * * * * * * * * * * * * * * //

dimensions      [1 2 -3 0 0 -1 0];

internalField   nonuniform List<scalar> 
58002
(
3470.36
3480.18
3496.19
3516.39
3539.27
3563.66
3588.97
3615.74
3645.77
3681.84
3726.86
3783.12
3851.89
3933.3
4026.43
4129.39
4239.52
4353.6
4468.17
4579.87
4685.76
4783.55
4871.71
4949.52
5016.87
5074.24
5122.42
5162.39
5195.24
5222
5243.05
5261.25
5279.83
5298.79
5318.16
5337.93
5358.13
5378.76
5399.85
5421.41
5443.46
5466.01
5489.07
5512.69
5536.86
5561.61
5586.97
5612.96
5639.6
5666.92
5694.95
5723.72
5753.26
5783.61
5814.8
5846.86
5879.84
5913.79
5948.74
5984.76
6021.88
6060.18
6099.71
6140.53
6182.73
6226.38
6271.56
6318.38
6366.92
6417.3
6469.65
6524.09
6580.79
6639.89
6701.6
6766.1
6833.65
6904.5
6978.96
7057.37
7140.14
7227.74
7320.73
7419.77
7525.67
7639.42
7762.29
7895.86
8042.28
8204.44
8386.48
8594.69
8839.5
9141.66
9562.49
3470.35
3480.17
3496.17
3516.37
3539.24
3563.62
3588.93
3615.69
3645.72
3681.8
3726.84
3783.13
3851.94
3933.4
4026.59
4129.62
4239.84
4354.01
4468.69
4580.5
4686.5
4784.4
4872.68
4950.58
5018.03
5075.49
5123.73
5163.77
5196.66
5223.47
5244.55
5262.78
5281.39
5300.39
5319.78
5339.59
5359.82
5380.5
5401.62
5423.22
5445.31
5467.9
5491.01
5514.67
5538.89
5563.69
5589.1
5615.14
5641.83
5669.21
5697.31
5726.14
5755.75
5786.17
5817.42
5849.57
5882.63
5916.66
5951.71
5987.82
6025.04
6063.45
6103.09
6144.03
6186.36
6230.15
6275.48
6322.45
6371.17
6421.74
6474.29
6528.96
6585.89
6645.26
6707.25
6772.09
6840
6911.26
6986.18
7065.12
7148.5
7236.81
7330.64
7430.69
7537.81
7653.09
7777.88
7913.96
8063.74
8230.58
8419.41
8637.92
8899.07
9226.97
9672.14
3470.35
3480.16
3496.16
3516.35
3539.22
3563.58
3588.88
3615.64
3645.67
3681.76
3726.82
3783.15
3851.99
3933.5
4026.74
4129.85
4240.14
4354.41
4469.18
4581.1
4687.21
4785.22
4873.59
4951.59
5019.12
5076.65
5124.96
5165.05
5197.99
5224.84
5245.94
5264.2
5282.84
5301.87
5321.29
5341.13
5361.39
5382.09
5403.25
5424.89
5447.01
5469.64
5492.79
5516.48
5540.74
5565.59
5591.04
5617.13
5643.87
5671.3
5699.45
5728.33
5758
5788.47
5819.8
5852
5885.13
5919.24
5954.36
5990.55
6027.86
6066.35
6106.09
6147.13
6189.57
6233.47
6278.92
6326.02
6374.88
6425.6
6478.31
6533.15
6590.28
6649.86
6712.08
6777.17
6845.36
6916.94
6992.22
7071.57
7155.41
7244.26
7338.73
7439.52
7547.56
7663.96
7790.15
7928.04
8080.2
8250.27
8443.63
8668.65
8939.05
9277.87
9720.02
3470.34
3480.16
3496.15
3516.33
3539.19
3563.55
3588.84
3615.59
3645.62
3681.73
3726.81
3783.15
3852.04
3933.59
4026.89
4130.07
4240.44
4354.79
4469.66
4581.67
4687.88
4785.98
4874.45
4952.53
5020.14
5077.74
5126.1
5166.24
5199.22
5226.1
5247.23
5265.51
5284.18
5303.23
5322.68
5342.54
5362.83
5383.56
5404.75
5426.41
5448.56
5471.22
5494.4
5518.13
5542.43
5567.31
5592.8
5618.93
5645.71
5673.18
5701.37
5730.3
5760.01
5790.53
5821.91
5854.17
5887.35
5921.51
5956.7
5992.95
6030.33
6068.89
6108.7
6149.82
6192.34
6236.33
6281.88
6329.08
6378.04
6428.87
6481.7
6536.68
6593.94
6653.68
6716.07
6781.34
6849.74
6921.54
6997.06
7076.69
7160.86
7250.07
7344.95
7446.24
7554.86
7671.95
7799
7937.93
8091.4
8263.13
8458.56
8686.06
8958.96
9298.45
9733.34
3470.34
3480.15
3496.13
3516.31
3539.16
3563.51
3588.79
3615.54
3645.58
3681.69
3726.79
3783.16
3852.08
3933.68
4027.04
4130.28
4240.72
4355.16
4470.12
4582.22
4688.52
4786.71
4875.26
4953.41
5021.09
5078.74
5127.16
5167.34
5200.35
5227.26
5248.42
5266.72
5285.4
5304.47
5323.94
5343.82
5364.14
5384.89
5406.1
5427.79
5449.97
5472.65
5495.86
5519.62
5543.94
5568.85
5594.37
5620.53
5647.34
5674.85
5703.07
5732.04
5761.79
5792.35
5823.76
5856.06
5889.29
5923.49
5958.72
5995.02
6032.45
6071.06
6110.93
6152.11
6194.68
6238.73
6284.35
6331.62
6380.65
6431.56
6484.47
6539.53
6596.88
6656.72
6719.21
6784.59
6853.11
6925.04
7000.7
7080.49
7164.82
7254.21
7349.3
7450.81
7559.67
7677.02
7804.35
7943.56
8097.25
8269.03
8464.08
8690.15
8959.32
9291.04
9717.79
3470.33
3480.14
3496.12
3516.29
3539.13
3563.47
3588.75
3615.49
3645.53
3681.65
3726.77
3783.17
3852.12
3933.77
4027.18
4130.48
4241
4355.51
4470.55
4582.74
4689.12
4787.39
4876.01
4954.23
5021.97
5079.67
5128.13
5168.34
5201.39
5228.32
5249.49
5267.81
5286.51
5305.59
5325.08
5344.98
5365.31
5386.09
5407.32
5429.02
5451.22
5473.93
5497.16
5520.93
5545.28
5570.21
5595.76
5621.94
5648.77
5676.3
5704.55
5733.55
5763.32
5793.91
5825.35
5857.68
5890.94
5925.17
5960.43
5996.76
6034.22
6072.87
6112.77
6153.98
6196.59
6240.68
6286.33
6333.64
6382.71
6433.66
6486.61
6541.71
6599.1
6658.97
6721.51
6786.93
6855.48
6927.44
7003.14
7082.95
7167.29
7256.69
7351.76
7453.22
7561.98
7679.18
7806.21
7944.94
8097.79
8268.11
8460.5
8681.6
8941.32
9255.75
9661.86
9104.82
8222.94
7566.61
7014.13
6524.83
6078.54
5663.32
5271.38
4897.46
4537.85
4190.01
3852.29
3523.83
3204.59
2895.34
2597.71
2314.22
2048.05
1802.67
9321.3
8391.14
7687.43
7106.81
6601.31
6145.76
5725.53
5331.4
4957.31
4599.12
4254.05
3920.29
3596.91
3283.77
2981.47
2691.4
2415.63
2156.77
1917.57
9418.78
8496.25
7773.95
7178.56
6663.87
6203.15
5780.47
5385.84
5012.73
4656.74
4314.93
3985.4
3667.15
3359.93
3064.2
2781.09
2512.33
2260.01
2026.34
9449.43
8545.6
7825.11
7227.84
6711.4
6249.94
5827.6
5434.29
5063.38
4710.41
4372.38
4047.37
3734.31
3432.88
3143.41
2866.8
2604.45
2358.07
2129.39
9425.13
8543.88
7841.96
7254.6
6743.61
6285.83
5866.64
5476.5
5109.04
4759.92
4426.21
4106.01
3798.24
3502.51
3219.03
2948.53
2692.12
2451.19
2227.11
9326.03
8492.2
7826.9
7260.08
6761.01
6310.98
5897.58
5512.38
5149.58
4805.14
4476.28
4161.19
3858.81
3568.73
3291.04
3026.33
2775.49
2539.61
2319.8
1583.41
1391.03
1223.44
1079.37
956.596
852.445
764.208
689.363
625.693
571.314
524.649
484.394
449.481
419.033
392.332
368.79
347.923
329.333
312.69
297.72
284.194
271.922
260.745
250.525
241.149
232.519
224.553
217.177
210.331
203.962
198.023
192.474
187.28
182.409
177.835
173.533
169.481
165.662
162.057
158.653
155.434
152.389
149.507
146.778
144.192
141.743
139.423
137.225
135.142
133.171
131.305
129.542
127.876
126.305
124.825
123.434
122.129
120.91
119.774
118.72
117.748
116.858
116.05
115.323
114.681
114.124
113.655
113.277
112.994
112.811
112.733
112.768
112.926
113.216
113.65
114.246
115.02
115.996
117.199
118.663
120.428
122.54
125.059
128.057
131.619
135.856
140.899
146.906
154.081
162.66
172.931
185.229
199.927
217.436
238.134
262.309
290.072
1702.65
1512.45
1344.92
1199.07
1073.14
964.918
872.083
792.413
723.897
664.788
613.59
569.046
530.107
495.9
465.701
438.911
415.032
393.647
374.411
357.035
341.273
326.921
313.807
301.781
290.719
280.513
271.07
262.312
254.168
246.579
239.492
232.863
226.649
220.817
215.334
210.173
205.309
200.72
196.386
192.29
188.415
184.748
181.276
177.986
174.869
171.914
169.114
166.46
163.945
161.563
159.309
157.177
155.163
153.261
151.47
149.785
148.206
146.727
145.349
144.07
142.889
141.805
140.82
139.933
139.146
138.46
137.879
137.406
137.045
136.802
136.682
136.695
136.849
137.156
137.631
138.289
139.15
140.239
141.583
143.216
145.182
147.528
150.316
153.618
157.522
162.136
167.59
174.038
181.673
190.716
201.429
214.112
229.083
246.686
267.219
290.895
317.776
1815.36
1627.3
1460.09
1312.99
1184.54
1072.92
976.136
892.222
819.369
755.963
700.598
652.07
609.358
571.602
538.081
508.188
481.415
457.337
435.593
415.88
397.942
381.561
366.552
352.757
340.04
328.285
317.39
307.268
297.843
289.049
280.829
273.13
265.907
259.122
252.739
246.726
241.056
235.703
230.646
225.863
221.337
217.052
212.992
209.145
205.498
202.041
198.763
195.655
192.71
189.919
187.277
184.778
182.416
180.186
178.084
176.107
174.252
172.515
170.895
169.391
168.001
166.724
165.562
164.513
163.581
162.766
162.072
161.503
161.062
160.757
160.593
160.58
160.728
161.049
161.558
162.273
163.214
164.407
165.882
167.673
169.825
172.388
175.423
179.004
183.218
188.172
193.992
200.827
208.856
218.288
229.357
242.328
257.476
275.085
295.391
318.551
344.593
1922.05
1736.08
1569.43
1421.48
1291.06
1176.62
1076.45
988.819
912.098
844.804
785.621
733.405
687.17
646.075
609.406
576.558
547.017
520.348
496.184
474.21
454.159
435.802
418.945
403.42
389.082
375.806
363.484
352.021
341.335
331.353
322.013
313.258
305.039
297.311
290.037
283.18
276.711
270.601
264.825
259.361
254.189
249.289
244.647
240.245
236.072
232.114
228.362
224.803
221.429
218.232
215.204
212.339
209.631
207.073
204.662
202.393
200.264
198.269
196.408
194.679
193.079
191.61
190.27
189.06
187.982
187.037
186.229
185.562
185.04
184.67
184.46
184.418
184.556
184.887
185.425
186.191
187.205
188.494
190.089
192.026
194.349
197.111
200.372
204.206
208.699
213.957
220.1
227.268
235.633
245.383
256.732
269.911
285.155
302.7
322.734
345.369
370.613
2023.16
1839.25
1673.33
1524.89
1392.94
1276.18
1173.12
1082.25
1002.09
931.289
868.622
813.004
763.489
719.263
679.623
643.968
611.785
582.633
556.14
531.982
509.883
489.608
470.951
453.738
437.816
423.051
409.329
396.549
384.622
373.471
363.028
353.231
344.027
335.369
327.213
319.522
312.262
305.402
298.914
292.775
286.961
281.452
276.231
271.28
266.584
262.129
257.904
253.897
250.097
246.495
243.083
239.855
236.802
233.918
231.199
228.639
226.236
223.985
221.883
219.929
218.121
216.458
214.941
213.568
212.344
211.268
210.345
209.579
208.974
208.538
208.278
208.205
208.328
208.664
209.227
210.036
211.116
212.492
214.197
216.266
218.746
221.689
225.155
229.217
233.959
239.484
245.908
253.363
262.007
272.015
283.575
296.893
312.167
329.594
349.322
371.431
395.914
2119.07
1937.21
1772.16
1623.51
1490.41
1371.75
1266.25
1172.56
1089.36
1015.41
949.576
890.829
838.273
791.119
748.682
710.37
675.672
644.147
615.418
589.156
565.079
542.943
522.539
503.682
486.213
469.993
454.901
440.829
427.684
415.384
403.855
393.032
382.858
373.28
364.254
355.739
347.696
340.094
332.903
326.094
319.645
313.532
307.737
302.24
297.025
292.077
287.384
282.93
278.707
274.703
270.91
267.32
263.924
260.715
257.689
254.84
252.165
249.657
247.315
245.137
243.12
241.264
239.569
238.034
236.663
235.455
234.416
233.548
232.859
232.354
232.042
231.933
232.04
232.375
232.956
233.804
234.941
236.395
238.198
240.387
243.009
246.114
249.764
254.03
258.992
264.751
271.417
279.112
287.986
298.195
309.909
323.306
338.555
355.82
375.218
396.805
420.562
321.257
355.449
392.001
430.193
469.339
508.837
548.248
587.212
625.484
662.901
699.353
734.808
769.231
802.612
834.987
866.37
896.793
926.29
954.89
982.647
1009.59
1035.75
1061.17
1085.87
1109.9
1133.28
1156.04
1178.21
1199.8
1220.86
1241.39
1261.43
1280.98
1300.07
1318.72
1336.95
1354.77
1372.2
1389.24
1405.92
1422.25
1438.23
1453.89
1469.23
1484.27
1499.01
1513.45
1527.63
1541.53
1555.18
1568.57
1581.71
1594.62
1607.3
1619.75
1631.99
1644.01
1655.83
1667.45
1678.88
1690.11
1701.16
1712.03
1722.73
1733.25
1743.61
1753.81
1763.85
1773.74
1783.47
1793.06
1802.51
1811.81
1820.98
1830.02
1838.92
1847.7
1856.36
1864.89
1873.3
1881.6
1889.78
1897.85
1905.81
1913.66
1921.41
1929.06
1936.6
1944.05
1951.4
1958.66
1965.83
1972.9
1979.88
1986.78
1993.59
2000.32
2006.96
2013.52
2020.01
2026.41
2032.74
2039
2045.18
2051.29
2057.32
2063.29
2069.19
2075.02
2080.78
2086.48
2092.12
2097.69
2103.2
2108.65
2114.03
2119.36
2124.64
2129.85
2135.01
2140.11
2145.16
2150.16
2155.1
2159.99
2164.83
2169.63
2174.37
2179.06
2183.7
2188.3
2192.85
2197.36
2201.82
2206.23
2210.61
2214.94
2219.22
2223.47
2227.67
2231.83
2235.96
2240.04
2244.08
2248.09
2252.06
2255.99
2259.88
2263.74
2267.56
2271.35
2275.1
2278.81
2282.5
2286.15
2289.76
2293.35
2296.9
2300.42
2303.91
2307.37
2310.79
2314.19
2317.56
2320.9
2324.21
2327.49
2330.74
2333.96
2337.16
2340.33
2343.47
2346.59
2349.68
2352.74
2355.78
2358.8
2361.78
2364.75
2367.69
2370.6
2373.49
2376.36
2379.21
2382.03
2384.83
2387.6
2390.36
2393.09
2395.8
2398.49
2401.16
2403.81
2406.43
2409.04
2411.87
2415.23
2419.19
2423.86
2429.34
2435.77
2443.28
2452.02
2462.14
2473.8
2487.14
2502.31
2519.4
2538.5
2559.6
2582.65
2607.49
2633.89
2661.49
2689.89
2718.59
2747.06
2774.82
2801.44
2826.62
2850.23
2872.36
2893.26
2913.3
2932.87
2952.26
2971.54
2990.58
3009.03
3026.4
3042.12
3055.52
3065.83
3071.95
347.703
380.33
415.124
451.484
488.822
526.606
564.433
601.96
638.946
675.219
710.658
745.215
778.844
811.521
843.27
874.095
904.02
933.07
961.268
988.662
1015.28
1041.14
1066.29
1090.74
1114.54
1137.71
1160.28
1182.26
1203.69
1224.59
1244.98
1264.88
1284.31
1303.28
1321.83
1339.95
1357.67
1375
1391.96
1408.56
1424.81
1440.72
1456.31
1471.58
1486.55
1501.23
1515.62
1529.74
1543.59
1557.19
1570.53
1583.63
1596.49
1609.13
1621.54
1633.74
1645.72
1657.51
1669.09
1680.48
1691.69
1702.7
1713.54
1724.21
1734.71
1745.04
1755.21
1765.23
1775.09
1784.8
1794.36
1803.79
1813.07
1822.22
1831.23
1840.12
1848.88
1857.51
1866.03
1874.42
1882.7
1890.87
1898.92
1906.86
1914.7
1922.44
1930.07
1937.6
1945.03
1952.37
1959.61
1966.76
1973.82
1980.79
1987.68
1994.48
2001.19
2007.83
2014.38
2020.85
2027.25
2033.57
2039.81
2045.98
2052.08
2058.11
2064.06
2069.95
2075.77
2081.53
2087.22
2092.84
2098.41
2103.91
2109.35
2114.73
2120.05
2125.32
2130.53
2135.68
2140.77
2145.82
2150.81
2155.74
2160.63
2165.46
2170.25
2174.98
2179.67
2184.31
2188.9
2193.44
2197.94
2202.4
2206.81
2211.17
2215.5
2219.78
2224.02
2228.22
2232.37
2236.49
2240.57
2244.61
2248.61
2252.57
2256.5
2260.39
2264.24
2268.06
2271.84
2275.59
2279.3
2282.98
2286.63
2290.24
2293.82
2297.37
2300.88
2304.37
2307.82
2311.25
2314.64
2318
2321.34
2324.65
2327.92
2331.17
2334.39
2337.59
2340.75
2343.89
2347.01
2350.09
2353.15
2356.19
2359.2
2362.18
2365.15
2368.08
2371
2373.88
2376.75
2379.59
2382.41
2385.21
2387.98
2390.73
2393.46
2396.17
2398.86
2401.52
2404.17
2406.79
2409.4
2412.23
2415.58
2419.54
2424.2
2429.68
2436.11
2443.61
2452.34
2462.45
2474.1
2487.43
2502.59
2519.67
2538.76
2559.84
2582.88
2607.71
2634.09
2661.68
2690.06
2718.74
2747.21
2774.96
2801.56
2826.73
2850.34
2872.46
2893.35
2913.38
2932.94
2952.31
2971.59
2990.62
3009.06
3026.43
3042.14
3055.54
3065.84
3071.96
373.366
404.582
437.792
472.49
508.172
544.365
580.704
616.866
652.614
687.776
722.221
755.892
788.73
820.702
851.821
882.082
911.501
940.096
967.882
994.904
1021.18
1046.74
1071.6
1095.8
1119.36
1142.31
1164.68
1186.48
1207.73
1228.47
1248.71
1268.47
1287.77
1306.62
1325.05
1343.07
1360.69
1377.92
1394.78
1411.3
1427.47
1443.3
1458.81
1474.02
1488.93
1503.54
1517.87
1531.93
1545.73
1559.27
1572.57
1585.61
1598.43
1611.02
1623.4
1635.55
1647.5
1659.24
1670.79
1682.14
1693.31
1704.3
1715.11
1725.74
1736.21
1746.51
1756.66
1766.65
1776.48
1786.17
1795.71
1805.11
1814.37
1823.5
1832.49
1841.35
1850.09
1858.71
1867.2
1875.58
1883.84
1891.98
1900.02
1907.95
1915.77
1923.49
1931.1
1938.62
1946.04
1953.36
1960.59
1967.73
1974.77
1981.73
1988.61
1995.39
2002.1
2008.71
2015.26
2021.72
2028.1
2034.41
2040.64
2046.8
2052.89
2058.91
2064.86
2070.73
2076.55
2082.29
2087.97
2093.59
2099.15
2104.64
2110.07
2115.44
2120.76
2126.02
2131.22
2136.36
2141.45
2146.48
2151.47
2156.4
2161.28
2166.1
2170.88
2175.61
2180.29
2184.92
2189.51
2194.04
2198.54
2202.99
2207.39
2211.75
2216.07
2220.35
2224.58
2228.77
2232.93
2237.04
2241.11
2245.15
2249.14
2253.1
2257.02
2260.91
2264.76
2268.57
2272.35
2276.09
2279.8
2283.47
2287.11
2290.72
2294.3
2297.84
2301.36
2304.84
2308.29
2311.71
2315.1
2318.46
2321.79
2325.09
2328.37
2331.61
2334.83
2338.02
2341.18
2344.32
2347.43
2350.51
2353.57
2356.6
2359.61
2362.59
2365.55
2368.49
2371.4
2374.28
2377.14
2379.98
2382.8
2385.59
2388.36
2391.11
2393.84
2396.55
2399.23
2401.89
2404.54
2407.16
2409.76
2412.59
2415.94
2419.89
2424.55
2430.03
2436.45
2443.95
2452.67
2462.77
2474.41
2487.73
2502.88
2519.95
2539.02
2560.09
2583.11
2607.92
2634.29
2661.86
2690.23
2718.9
2747.35
2775.09
2801.69
2826.85
2850.45
2872.56
2893.44
2913.46
2933.01
2952.37
2971.63
2990.65
3009.09
3026.45
3042.15
3055.55
3065.85
3071.96
398.324
428.255
460.028
493.212
527.371
562.086
597.027
631.892
666.453
700.538
734.012
766.81
798.865
830.133
860.621
890.314
919.221
947.353
974.721
1001.36
1027.29
1052.53
1077.11
1101.04
1124.36
1147.09
1169.24
1190.85
1211.93
1232.5
1252.58
1272.2
1291.36
1310.08
1328.39
1346.3
1363.81
1380.95
1397.71
1414.14
1430.22
1445.97
1461.41
1476.55
1491.38
1505.93
1520.2
1534.2
1547.94
1561.43
1574.67
1587.67
1600.44
1612.98
1625.31
1637.42
1649.33
1661.03
1672.54
1683.86
1694.99
1705.94
1716.72
1727.32
1737.76
1748.03
1758.15
1768.11
1777.92
1787.58
1797.09
1806.47
1815.71
1824.81
1833.78
1842.62
1851.34
1859.93
1868.41
1876.76
1885.01
1893.14
1901.15
1909.07
1916.87
1924.57
1932.17
1939.67
1947.07
1954.38
1961.6
1968.72
1975.75
1982.7
1989.56
1996.33
2003.02
2009.63
2016.16
2022.61
2028.98
2035.28
2041.5
2047.65
2053.72
2059.73
2065.67
2071.54
2077.34
2083.08
2088.75
2094.36
2099.9
2105.39
2110.81
2116.17
2121.48
2126.73
2131.92
2137.06
2142.14
2147.17
2152.14
2157.07
2161.94
2166.76
2171.53
2176.25
2180.92
2185.55
2190.13
2194.66
2199.15
2203.59
2207.99
2212.34
2216.66
2220.93
2225.16
2229.34
2233.49
2237.6
2241.67
2245.7
2249.69
2253.64
2257.56
2261.44
2265.28
2269.09
2272.86
2276.6
2280.31
2283.98
2287.61
2291.22
2294.79
2298.33
2301.84
2305.31
2308.76
2312.18
2315.56
2318.92
2322.25
2325.55
2328.82
2332.06
2335.27
2338.46
2341.62
2344.75
2347.86
2350.94
2354
2357.03
2360.03
2363.01
2365.96
2368.9
2371.8
2374.68
2377.54
2380.38
2383.19
2385.99
2388.75
2391.5
2394.23
2396.93
2399.61
2402.27
2404.91
2407.53
2410.13
2412.96
2416.3
2420.25
2424.91
2430.38
2436.79
2444.29
2453
2463.09
2474.72
2488.03
2503.17
2520.23
2539.28
2560.34
2583.34
2608.14
2634.49
2662.05
2690.41
2719.06
2747.5
2775.23
2801.82
2826.97
2850.56
2872.66
2893.53
2913.54
2933.07
2952.43
2971.68
2990.69
3009.11
3026.47
3042.17
3055.56
3065.86
3071.97
422.639
451.394
481.854
513.65
546.404
579.744
613.371
647.006
680.43
713.475
746.003
777.944
809.225
839.795
869.652
898.775
927.166
954.83
981.773
1008.03
1033.6
1058.52
1082.8
1106.46
1129.53
1152.02
1173.97
1195.38
1216.27
1236.67
1256.59
1276.06
1295.08
1313.67
1331.85
1349.64
1367.04
1384.08
1400.75
1417.08
1433.07
1448.74
1464.1
1479.16
1493.92
1508.4
1522.61
1536.55
1550.23
1563.66
1576.84
1589.79
1602.51
1615.01
1627.29
1639.35
1651.21
1662.88
1674.35
1685.63
1696.73
1707.64
1718.38
1728.95
1739.36
1749.6
1759.69
1769.62
1779.4
1789.03
1798.52
1807.87
1817.08
1826.16
1835.11
1843.93
1852.62
1861.2
1869.65
1877.99
1886.21
1894.32
1902.32
1910.21
1918
1925.68
1933.27
1940.75
1948.14
1955.43
1962.63
1969.74
1976.75
1983.69
1990.53
1997.29
2003.97
2010.56
2017.08
2023.52
2029.88
2036.16
2042.37
2048.51
2054.58
2060.58
2066.5
2072.36
2078.15
2083.88
2089.54
2095.14
2100.68
2106.15
2111.57
2116.92
2122.22
2127.46
2132.65
2137.77
2142.85
2147.87
2152.83
2157.75
2162.61
2167.43
2172.19
2176.91
2181.57
2186.19
2190.76
2195.29
2199.77
2204.21
2208.6
2212.95
2217.26
2221.52
2225.74
2229.93
2234.07
2238.17
2242.23
2246.26
2250.24
2254.19
2258.1
2261.98
2265.82
2269.62
2273.39
2277.12
2280.82
2284.49
2288.12
2291.72
2295.29
2298.82
2302.33
2305.8
2309.24
2312.66
2316.04
2319.39
2322.72
2326.01
2329.28
2332.52
2335.73
2338.91
2342.07
2345.2
2348.3
2351.38
2354.43
2357.46
2360.46
2363.43
2366.38
2369.31
2372.22
2375.1
2377.95
2380.79
2383.6
2386.38
2389.15
2391.89
2394.62
2397.32
2400
2402.65
2405.29
2407.91
2410.51
2413.33
2416.67
2420.62
2425.27
2430.74
2437.14
2444.63
2453.34
2463.42
2475.04
2488.34
2503.46
2520.51
2539.55
2560.59
2583.58
2608.36
2634.69
2662.24
2690.58
2719.22
2747.65
2775.36
2801.94
2827.08
2850.66
2872.76
2893.61
2913.61
2933.14
2952.48
2971.72
2990.72
3009.14
3026.49
3042.18
3055.57
3065.87
3071.98
446.367
474.037
503.291
533.811
565.264
597.322
629.714
662.181
694.518
726.559
758.167
789.27
819.788
849.667
878.895
907.449
935.321
962.515
989.028
1014.89
1040.11
1064.7
1088.67
1112.05
1134.87
1157.12
1178.85
1200.05
1220.75
1240.97
1260.73
1280.04
1298.92
1317.37
1335.43
1353.1
1370.38
1387.31
1403.88
1420.11
1436.02
1451.6
1466.88
1481.86
1496.55
1510.96
1525.09
1538.97
1552.58
1565.95
1579.08
1591.98
1604.64
1617.09
1629.32
1641.35
1653.16
1664.78
1676.21
1687.45
1698.51
1709.39
1720.1
1730.63
1741
1751.21
1761.27
1771.17
1780.92
1790.52
1799.99
1809.31
1818.5
1827.55
1836.47
1845.27
1853.94
1862.5
1870.93
1879.24
1887.44
1895.53
1903.51
1911.39
1919.16
1926.82
1934.39
1941.86
1949.23
1956.5
1963.69
1970.78
1977.78
1984.7
1991.53
1998.28
2004.94
2011.52
2018.03
2024.45
2030.8
2037.07
2043.27
2049.4
2055.45
2061.44
2067.36
2073.2
2078.98
2084.7
2090.35
2095.94
2101.47
2106.94
2112.34
2117.69
2122.98
2128.21
2133.38
2138.5
2143.57
2148.58
2153.54
2158.45
2163.31
2168.11
2172.87
2177.58
2182.24
2186.85
2191.41
2195.93
2200.41
2204.84
2209.22
2213.57
2217.87
2222.13
2226.34
2230.52
2234.65
2238.75
2242.81
2246.83
2250.81
2254.75
2258.66
2262.53
2266.36
2270.16
2273.92
2277.65
2281.35
2285.01
2288.64
2292.23
2295.8
2299.33
2302.83
2306.3
2309.74
2313.14
2316.52
2319.87
2323.19
2326.48
2329.74
2332.98
2336.19
2339.37
2342.52
2345.65
2348.75
2351.82
2354.87
2357.89
2360.89
2363.86
2366.81
2369.74
2372.64
2375.51
2378.37
2381.2
2384.01
2386.79
2389.55
2392.29
2395.01
2397.71
2400.39
2403.04
2405.68
2408.29
2410.89
2413.71
2417.05
2420.99
2425.64
2431.1
2437.5
2444.98
2453.68
2463.75
2475.36
2488.65
2503.76
2520.79
2539.82
2560.84
2583.82
2608.58
2634.9
2662.43
2690.76
2719.38
2747.8
2775.5
2802.07
2827.2
2850.77
2872.85
2893.7
2913.69
2933.21
2952.54
2971.77
2990.76
3009.17
3026.51
3042.2
3055.58
3065.88
3071.99
3470.32
3480.13
3496.11
3516.27
3539.11
3563.44
3588.7
3615.44
3645.48
3681.61
3726.75
3783.18
3852.17
3933.85
4027.32
4130.68
4241.26
4355.85
4470.97
4583.23
4689.69
4788.03
4876.72
4954.99
5022.78
5080.52
5129.01
5169.25
5202.32
5229.27
5250.46
5268.79
5287.5
5306.6
5326.1
5346.02
5366.36
5387.15
5408.4
5430.12
5452.33
5475.05
5498.29
5522.09
5546.45
5571.4
5596.96
5623.15
5650
5677.55
5705.81
5734.82
5764.62
5795.22
5826.68
5859.02
5892.3
5926.55
5961.82
5998.17
6035.65
6074.31
6114.22
6155.45
6198.07
6242.17
6287.83
6335.14
6384.21
6435.17
6488.12
6543.21
6600.59
6660.45
6722.96
6788.34
6856.85
6928.75
7004.37
7084.07
7168.28
7257.5
7352.34
7453.49
7561.83
7678.44
7804.65
7942.17
8093.22
8260.7
8448.48
8661.73
8907.27
9193.56
9526.66
3470.32
3480.12
3496.1
3516.25
3539.08
3563.4
3588.66
3615.39
3645.43
3681.57
3726.73
3783.18
3852.21
3933.94
4027.45
4130.87
4241.52
4356.18
4471.36
4583.7
4690.22
4788.62
4877.36
4955.69
5023.51
5081.29
5129.8
5170.07
5203.16
5230.12
5251.32
5269.66
5288.38
5307.49
5327
5346.93
5367.28
5388.08
5409.33
5431.06
5453.28
5476.01
5499.27
5523.07
5547.44
5572.4
5597.97
5624.17
5651.03
5678.59
5706.86
5735.88
5765.67
5796.28
5827.75
5860.09
5893.37
5927.63
5962.9
5999.25
6036.72
6075.38
6115.29
6156.5
6199.12
6243.2
6288.84
6336.13
6385.17
6436.09
6489
6544.04
6601.36
6661.14
6723.57
6788.84
6857.22
6928.97
7004.4
7083.88
7167.8
7256.67
7351.06
7451.65
7559.25
7674.88
7799.77
7935.44
8083.82
8247.34
8429
8632.39
8861.27
9117.64
9393.73
3470.31
3480.11
3496.08
3516.23
3539.05
3563.36
3588.61
3615.34
3645.38
3681.53
3726.71
3783.19
3852.25
3934.02
4027.58
4131.05
4241.77
4356.49
4471.74
4584.14
4690.72
4789.17
4877.96
4956.32
5024.17
5081.97
5130.51
5170.8
5203.89
5230.87
5252.08
5270.42
5289.15
5308.26
5327.78
5347.71
5368.07
5388.87
5410.13
5431.87
5454.09
5476.82
5500.08
5523.89
5548.26
5573.22
5598.79
5625
5651.86
5679.41
5707.68
5736.7
5766.49
5797.1
5828.55
5860.89
5894.16
5928.41
5963.67
6000
6037.45
6076.09
6115.97
6157.15
6199.73
6243.77
6289.36
6336.6
6385.58
6436.43
6489.25
6544.2
6601.41
6661.06
6723.33
6788.44
6856.61
6928.11
7003.25
7082.37
7165.87
7254.22
7347.97
7447.75
7554.32
7668.61
7791.72
7924.97
8069.98
8228.66
8403.14
8595.56
8807.2
9035.93
9269.55
3470.3
3480.1
3496.07
3516.21
3539.02
3563.33
3588.57
3615.29
3645.33
3681.5
3726.69
3783.19
3852.28
3934.1
4027.71
4131.23
4242
4356.78
4472.09
4584.55
4691.18
4789.68
4878.5
4956.89
5024.77
5082.59
5131.14
5171.43
5204.53
5231.51
5252.72
5271.07
5289.8
5308.92
5328.44
5348.37
5368.73
5389.53
5410.79
5432.53
5454.75
5477.48
5500.74
5524.54
5548.91
5573.87
5599.43
5625.63
5652.48
5680.03
5708.29
5737.29
5767.07
5797.66
5829.1
5861.42
5894.67
5928.89
5964.12
6000.42
6037.83
6076.43
6116.26
6157.4
6199.91
6243.89
6289.41
6336.56
6385.45
6436.18
6488.89
6543.69
6600.74
6660.21
6722.27
6787.13
6855.02
6926.18
7000.93
7079.58
7162.52
7250.19
7343.11
7441.85
7547.12
7659.75
7780.69
7911.05
8052.13
8205.34
8372.02
8553.11
8748.1
8952.79
9154.8
3470.3
3480.1
3496.06
3516.19
3539
3563.29
3588.52
3615.24
3645.29
3681.46
3726.66
3783.2
3852.32
3934.17
4027.83
4131.4
4242.23
4357.06
4472.42
4584.93
4691.61
4790.14
4878.99
4957.4
5025.29
5083.12
5131.67
5171.97
5205.07
5232.05
5253.26
5271.61
5290.34
5309.45
5328.97
5348.9
5369.26
5390.06
5411.31
5433.04
5455.26
5477.98
5501.23
5525.03
5549.39
5574.33
5599.89
5626.07
5652.91
5680.43
5708.68
5737.66
5767.42
5797.98
5829.39
5861.68
5894.89
5929.07
5964.26
6000.51
6037.87
6076.41
6116.17
6157.23
6199.67
6243.55
6288.97
6336.01
6384.77
6435.36
6487.9
6542.52
6599.37
6658.6
6720.39
6784.93
6852.46
6923.21
6997.46
7075.53
7157.78
7244.63
7336.53
7434.04
7537.77
7648.45
7766.89
7893.99
8030.73
8178.06
8336.67
8506.57
8686.16
8870.44
9048.49
3470.29
3480.09
3496.04
3516.17
3538.97
3563.25
3588.48
3615.19
3645.24
3681.42
3726.64
3783.2
3852.35
3934.24
4027.94
4131.57
4242.44
4357.33
4472.74
4585.28
4692
4790.55
4879.42
4957.85
5025.74
5083.57
5132.12
5172.41
5205.52
5232.49
5253.7
5272.04
5290.76
5309.87
5329.38
5349.31
5369.66
5390.45
5411.7
5433.41
5455.62
5478.33
5501.57
5525.35
5549.69
5574.62
5600.15
5626.32
5653.13
5680.63
5708.85
5737.8
5767.52
5798.05
5829.42
5861.66
5894.83
5928.95
5964.08
6000.27
6037.56
6076.02
6115.7
6156.67
6199
6242.77
6288.06
6334.95
6383.56
6433.97
6486.31
6540.71
6597.3
6656.24
6717.7
6781.86
6848.96
6919.2
6992.87
7070.26
7151.7
7237.57
7328.31
7424.4
7526.38
7634.88
7750.55
7874.11
8006.23
8147.47
8298
8457.2
8622.84
8789.91
8949.33
3470.29
3480.08
3496.03
3516.15
3538.94
3563.22
3588.43
3615.14
3645.19
3681.38
3726.62
3783.2
3852.39
3934.31
4028.06
4131.73
4242.65
4357.58
4473.03
4585.61
4692.35
4790.93
4879.8
4958.23
5026.12
5083.94
5132.49
5172.77
5205.86
5232.83
5254.02
5272.36
5291.07
5310.18
5329.68
5349.59
5369.93
5390.71
5411.94
5433.64
5455.83
5478.53
5501.75
5525.5
5549.82
5574.73
5600.24
5626.37
5653.15
5680.62
5708.8
5737.71
5767.39
5797.87
5829.19
5861.38
5894.48
5928.54
5963.6
5999.71
6036.91
6075.28
6114.86
6155.71
6197.91
6241.54
6286.68
6333.4
6381.81
6432.01
6484.11
6538.24
6594.53
6653.13
6714.21
6777.94
6844.53
6914.19
6987.19
7063.79
7144.31
7229.09
7318.52
7413.03
7513.09
7619.2
7731.9
7851.71
7979.04
8114.15
8256.8
8405.94
8559.11
8711.63
8856.16
3470.28
3480.07
3496.02
3516.14
3538.91
3563.18
3588.39
3615.09
3645.14
3681.34
3726.6
3783.2
3852.42
3934.38
4028.16
4131.88
4242.84
4357.82
4473.3
4585.91
4692.67
4791.25
4880.13
4958.55
5026.43
5084.24
5132.77
5173.03
5206.11
5233.06
5254.24
5272.57
5291.27
5310.36
5329.85
5349.75
5370.07
5390.83
5412.04
5433.73
5455.9
5478.57
5501.76
5525.49
5549.79
5574.66
5600.13
5626.23
5652.98
5680.4
5708.53
5737.4
5767.03
5797.45
5828.71
5860.83
5893.86
5927.84
5962.81
5998.82
6035.93
6074.18
6113.63
6154.35
6196.41
6239.87
6284.82
6331.35
6379.54
6429.49
6481.32
6535.15
6591.09
6649.31
6709.94
6773.17
6839.19
6908.21
6980.45
7056.18
7135.67
7219.25
7307.25
7400.03
7498.01
7601.59
7711.17
7827.09
7949.59
8078.62
8213.68
8353.49
8495.56
8635.7
8768.01
3470.27
3480.06
3496
3516.12
3538.89
3563.14
3588.34
3615.04
3645.09
3681.3
3726.57
3783.2
3852.45
3934.45
4028.27
4132.02
4243.03
4358.04
4473.56
4586.19
4692.96
4791.54
4880.41
4958.81
5026.67
5084.45
5132.96
5173.2
5206.25
5233.19
5254.36
5272.67
5291.36
5310.43
5329.9
5349.78
5370.08
5390.82
5412.01
5433.67
5455.81
5478.46
5501.62
5525.32
5549.58
5574.41
5599.85
5625.91
5652.6
5679.98
5708.06
5736.86
5766.43
5796.78
5827.97
5860.01
5892.95
5926.84
5961.71
5997.62
6034.6
6072.72
6112.04
6152.6
6194.49
6237.76
6282.51
6328.81
6376.75
6426.43
6477.95
6531.43
6586.99
6644.77
6704.91
6767.59
6832.98
6901.28
6972.69
7047.46
7125.84
7208.1
7294.56
7385.51
7481.29
7582.22
7688.57
7800.55
7918.21
8041.31
8169.17
8300.39
8432.57
8562.06
8684.13
3470.27
3480.05
3495.99
3516.1
3538.86
3563.11
3588.3
3614.99
3645.04
3681.26
3726.55
3783.2
3852.48
3934.51
4028.37
4132.16
4243.2
4358.24
4473.79
4586.43
4693.2
4791.78
4880.63
4959.01
5026.84
5084.59
5133.06
5173.27
5206.3
5233.22
5254.37
5272.66
5291.33
5310.38
5329.83
5349.69
5369.96
5390.68
5411.84
5433.47
5455.59
5478.2
5501.32
5524.98
5549.2
5573.99
5599.38
5625.39
5652.03
5679.35
5707.36
5736.1
5765.6
5795.88
5826.97
5858.93
5891.78
5925.56
5960.31
5996.09
6032.94
6070.92
6110.07
6150.46
6192.16
6235.23
6279.75
6325.79
6373.45
6422.82
6474
6527.09
6582.23
6639.53
6699.14
6761.22
6825.92
6893.43
6963.94
7037.68
7114.86
7195.74
7280.56
7369.58
7463.07
7561.26
7664.32
7772.35
7885.23
8002.62
8123.68
8247.01
8370.37
8490.62
8603.91
3470.26
3480.04
3495.98
3516.08
3538.83
3563.07
3588.25
3614.94
3644.99
3681.22
3726.53
3783.2
3852.5
3934.57
4028.46
4132.29
4243.37
4358.44
4474
4586.65
4693.42
4791.98
4880.8
4959.14
5026.94
5084.65
5133.08
5173.26
5206.26
5233.14
5254.27
5272.54
5291.19
5310.22
5329.64
5349.47
5369.72
5390.41
5411.54
5433.13
5455.21
5477.78
5500.87
5524.48
5548.65
5573.4
5598.73
5624.68
5651.26
5678.51
5706.46
5735.12
5764.53
5794.73
5825.73
5857.58
5890.32
5923.98
5958.61
5994.26
6030.96
6068.77
6107.75
6147.94
6189.43
6232.26
6276.53
6322.3
6369.65
6418.68
6469.49
6522.17
6576.84
6633.62
6692.65
6754.07
6818.03
6884.7
6954.25
7026.89
7102.8
7182.21
7265.32
7352.34
7443.46
7538.86
7638.62
7742.71
7850.94
7962.84
8077.53
8193.62
8309.07
8421.2
8526.86
3470.25
3480.04