/*--------------------------------*- C++ -*----------------------------------*\
| =========                 |                                                 |
| \\      /  F ield         | OpenFOAM: The Open Source CFD Toolbox           |
|  \\    /   O peration     | Version:  2406                                  |
|   \\  /    A nd           | Website:  www.openfoam.com                      |
|    \\/     M anipulation  |                                                 |
\*---------------------------------------------------------------------------*/
FoamFile
{
    version     2.0;
    format      ascii;
    arch        "LSB;label=32;scalar=64";
    class       volScalarField;
    location    "0.0001/encapsulator";
    object      voltExt;
}
// * * * * * * * * * * * * * * * * * * * * * * * * * * * * * * * * * * * * * //

dimensions      [1 2 -3 0 0 -1 0];

internalField   nonuniform List<scalar> 
26298
(
-9.62561503e-11
-9.471648397e-11
-9.295855664e-11
-9.147337325e-11
-9.036232981e-11
-8.9580151e-11
-8.904751602e-11
-8.869173697e-11
-8.845682933e-11
-8.830283276e-11
-8.81933028e-11
-8.80956431e-11
-8.799737629e-11
-8.789850364e-11
-9.843221304e-11
-9.728199236e-11
-9.574880345e-11
-9.433934888e-11
-9.323566452e-11
-9.243845564e-11
-9.188737857e-11
-9.151593578e-11
-9.126931345e-11
-9.110707055e-11
-9.099141924e-11
-9.088812227e-11
-9.078400483e-11
-9.067906824e-11
-1.012803437e-10
-1.01130863e-10
-1.002402139e-10
-9.910039079e-11
-9.807808153e-11
-9.728855483e-11
-9.672257122e-11
-9.633297959e-11
-9.607102025e-11
-9.589734074e-11
-9.577293108e-11
-9.566138859e-11
-9.554854097e-11
-9.543438994e-11
-1.036912387e-10
-1.054378317e-10
-1.058833196e-10
-1.053686507e-10
-1.045815008e-10
-1.038599373e-10
-1.033004072e-10
-1.028989181e-10
-1.026224746e-10
-1.024365716e-10
-1.023022377e-10
-1.021809871e-10
-1.02057518e-10
-1.019318338e-10
-1.049359139e-10
-1.096149932e-10
-1.12354031e-10
-1.130019455e-10
-1.126934691e-10
-1.121384284e-10
-1.116216759e-10
-1.112198715e-10
-1.109313895e-10
-1.107327261e-10
-1.105871218e-10
-1.104542901e-10
-1.103176483e-10
-1.101772039e-10
-1.046753682e-10
-1.132034388e-10
-1.193638571e-10
-1.21904351e-10
-1.22426798e-10
-1.221845263e-10
-1.217647538e-10
-1.213797052e-10
-1.210825255e-10
-1.208700133e-10
-1.207108844e-10
-1.205634279e-10
-1.204095256e-10
-1.202491923e-10
-1.029255184e-10
-1.158493993e-10
-1.265551268e-10
-1.318974201e-10
-1.337378584e-10
-1.340223141e-10
-1.337822879e-10
-1.334416798e-10
-1.331424242e-10
-1.329155399e-10
-1.327403076e-10
-1.325743814e-10
-1.323978138e-10
-1.322106292e-10
-9.995743884e-11
-1.173368533e-10
-1.334884765e-10
-1.426552611e-10
-1.464523749e-10
-1.475705274e-10
-1.476387479e-10
-1.473908633e-10
-1.47105076e-10
-1.468670887e-10
-1.466749123e-10
-1.464875378e-10
-1.462830837e-10
-1.460615793e-10
-9.616633063e-11
-1.176228048e-10
-1.397129226e-10
-1.537078469e-10
-1.602349462e-10
-1.626050128e-10
-1.631742453e-10
-1.631007059e-10
-1.628608456e-10
-1.626237415e-10
-1.62418841e-10
-1.622107249e-10
-1.619760262e-10
-1.617147551e-10
-9.195583516e-11
-1.168304596e-10
-1.448709462e-10
-1.645069762e-10
-1.746030134e-10
-1.787497108e-10
-1.800883446e-10
-1.803153905e-10
-1.801790618e-10
-1.799690604e-10
-1.797646353e-10
-1.795436332e-10
-1.792826256e-10
-1.789815373e-10
-8.766496296e-11
-1.151968809e-10
-1.487766168e-10
-1.745305117e-10
-1.889849679e-10
-1.955004858e-10
-1.979474614e-10
-1.986501909e-10
-1.987054215e-10
-1.985672355e-10
-1.983887873e-10
-1.981730356e-10
-1.978992381e-10
-1.975670945e-10
-8.353912678e-11
-1.130027539e-10
-1.514303637e-10
-1.833822197e-10
-2.028086263e-10
-2.122816944e-10
-2.16219687e-10
-2.176143343e-10
-2.179784993e-10
-2.179761601e-10
-2.178627197e-10
-2.176821475e-10
-2.174205693e-10
-2.170772167e-10
-7.973197809e-11
-1.105134236e-10
-1.529771267e-10
-1.908477559e-10
-2.155921085e-10
-2.285242559e-10
-2.343347113e-10
-2.366580709e-10
-2.374688833e-10
-2.376818027e-10
-2.376840176e-10
-2.37579257e-10
-2.373659038e-10
-2.370423599e-10
-7.632248271e-11
-1.079446242e-10
-1.536399657e-10
-1.968933941e-10
-2.270066152e-10
-2.437425524e-10
-2.517546531e-10
-2.552348522e-10
-2.566345864e-10
-2.571490098e-10
-2.573239561e-10
-2.573423706e-10
-2.572209204e-10
-2.56956713e-10
-7.333592402e-11
-1.054514487e-10
-1.536593415e-10
-2.016227308e-10
-2.368950883e-10
-2.575876969e-10
-2.680366532e-10
-2.728636787e-10
-2.749809347e-10
-2.758790109e-10
-2.762830235e-10
-2.764728047e-10
-2.76489211e-10
-2.763275396e-10
-7.076280712e-11
-1.031324667e-10
-1.532528176e-10
-2.052184286e-10
-2.452512327e-10
-2.698656398e-10
-2.828709268e-10
-2.891749618e-10
-2.921089839e-10
-2.934584186e-10
-2.941398691e-10
-2.945437781e-10
-2.947402221e-10
-2.94722195e-10
-6.857348463e-11
-1.010408248e-10
-1.525960231e-10
-2.078906235e-10
-2.521765324e-10
-2.805235268e-10
-2.960892042e-10
-3.039313233e-10
-3.077427169e-10
-3.095897242e-10
-3.105836961e-10
-3.112341684e-10
-3.11644054e-10
-3.118036437e-10
-6.672842105e-11
-9.919677585e-11
-1.518189855e-10
-2.098416727e-10
-2.578337454e-10
-2.896168987e-10
-3.076488111e-10
-3.170236655e-10
-3.217324647e-10
-3.240990832e-10
-3.25424884e-10
-3.263414402e-10
-3.269864574e-10
-3.27347264e-10
-6.51848651e-11
-9.759877384e-11
-1.510109888e-10
-2.112474249e-10
-2.624086717e-10
-2.972715212e-10
-3.176032449e-10
-3.284502213e-10
-3.340400501e-10
-3.369254607e-10
-3.385869176e-10
-3.397759859e-10
-3.406654954e-10
-3.412397026e-10
-6.390087587e-11
-9.623212784e-11
-1.502287851e-10
-2.122507563e-10
-2.660843018e-10
-3.036494415e-10
-3.260696182e-10
-3.382879482e-10
-3.447137964e-10
-3.480983119e-10
-3.500860463e-10
-3.515425831e-10
-3.526748494e-10
-3.53464028e-10
-6.307535915e-11
-9.533395837e-11
-1.496669517e-10
-2.128032771e-10
-2.683683702e-10
-3.077439912e-10
-3.316051502e-10
-3.4479063e-10
-3.518153077e-10
-3.555613949e-10
-3.577874546e-10
-3.594408377e-10
-3.607533917e-10
-3.617039694e-10
-6.259339803e-11
-9.480493904e-11
-1.493246945e-10
-2.131029071e-10
-2.696811787e-10
-3.101309938e-10
-3.348578101e-10
-3.486297294e-10
-3.56019893e-10
-3.599876972e-10
-3.623603962e-10
-3.641352567e-10
-3.655594564e-10
-3.666104221e-10
-6.210809092e-11
-9.426757864e-11
-1.489656062e-10
-2.133809901e-10
-2.709811535e-10
-3.125297358e-10
-3.38153294e-10
-3.525385172e-10
-3.603134474e-10
-3.645157603e-10
-3.670440805e-10
-3.689482467e-10
-3.704917126e-10
-3.716503356e-10
-6.161944322e-11
-9.372182462e-11
-1.485893785e-10
-2.136366671e-10
-2.722668248e-10
-3.149387307e-10
-3.414909746e-10
-3.565175613e-10
-3.64697565e-10
-3.691479217e-10
-3.718414246e-10
-3.738832138e-10
-3.755540638e-10
-3.768281365e-10
-6.112746086e-11
-9.31676258e-11
-1.481957029e-10
-2.138690628e-10
-2.735366574e-10
-3.17356364e-10
-3.448700852e-10
-3.605673254e-10
-3.691737938e-10
-3.738865311e-10
-3.767553749e-10
-3.789436355e-10
-3.807505154e-10
-3.821484097e-10
-6.063215032e-11
-9.260493243e-11
-1.477842706e-10
-2.140772864e-10
-2.747890501e-10
-3.19780885e-10
-3.482897043e-10
-3.646881625e-10
-3.737436431e-10
-3.787339244e-10
-3.817888806e-10
-3.841330837e-10
-3.860852142e-10
-3.876158565e-10
-6.013351857e-11
-9.203369619e-11
-1.473547735e-10
-2.142604312e-10
-2.760223346e-10
-3.222104e-10
-3.517487426e-10
-3.688802991e-10
-3.784085467e-10
-3.836924392e-10
-3.869449378e-10
-3.894551855e-10
-3.915624076e-10
-3.932353165e-10
-5.963157318e-11
-9.145387031e-11
-1.469069036e-10
-2.144175763e-10
-2.772347745e-10
-3.246428638e-10
-3.552459282e-10
-3.731438195e-10
-3.831698589e-10
-3.887644058e-10
-3.922265731e-10
-3.94913604e-10
-3.971864505e-10
-3.990118139e-10
-5.912632223e-11
-9.086540959e-11
-1.464403539e-10
-2.145477861e-10
-2.784245646e-10
-3.270760726e-10
-3.587797891e-10
-3.774786497e-10
-3.880288404e-10
-3.939521117e-10
-3.976368379e-10
-4.005120704e-10
-4.029618067e-10
-4.049505398e-10
-5.861777436e-11
-9.026827045e-11
-1.459548182e-10
-2.146501116e-10
-2.795898305e-10
-3.295076556e-10
-3.62348636e-10
-3.818845377e-10
-3.92986645e-10
-3.992577887e-10
-4.031787987e-10
-4.06254393e-10
-4.088930463e-10
-4.110568362e-10
-5.810593878e-11
-8.966241103e-11
-1.454499919e-10
-2.14723591e-10
-2.807286278e-10
-3.319350674e-10
-3.659505429e-10
-3.863610297e-10
-3.980443044e-10
-4.046836109e-10
-4.088555196e-10
-4.121444404e-10
-4.149848464e-10
-4.173362026e-10
-5.759082525e-11
-8.904779118e-11
-1.449255719e-10
-2.147672504e-10
-2.818389429e-10
-3.343555795e-10
-3.695833267e-10
-3.909074454e-10
-4.032027072e-10
-4.102316862e-10
-4.146700489e-10
-4.181861265e-10
-4.212419934e-10
-4.237943074e-10
-5.707244412e-11
-8.842437259e-11
-1.443812568e-10
-2.147801045e-10
-2.82918692e-10
-3.367662723e-10
-3.73244525e-10
-3.955228516e-10
-4.084625734e-10
-4.159040381e-10
-4.2062541e-10
-4.243834036e-10
-4.276693851e-10
-4.304369968e-10
-5.65508063e-11
-8.779211879e-11
-1.438167476e-10
-2.14761158e-10
-2.839657225e-10
-3.391640274e-10
-3.76931373e-10
-4.002060315e-10
-4.13824427e-10
-4.217025843e-10
-4.267245927e-10
-4.307402601e-10
-4.342720299e-10
-4.372702986e-10
-5.602592328e-11
-8.715099525e-11
-1.432317477e-10
-2.147094059e-10
-2.849778131e-10
-3.415455197e-10
-3.806407777e-10
-4.049554521e-10
-4.192885658e-10
-4.276291148e-10
-4.329705412e-10
-4.372607149e-10
-4.410550451e-10
-4.44300427e-10
-5.549780714e-11
-8.650096939e-11
-1.426259636e-10
-2.146238354e-10
-2.85952675e-10
-3.439072092e-10
-3.84369291e-10
-4.097692266e-10
-4.248550294e-10
-4.33685267e-10
-4.393661374e-10
-4.439488092e-10
-4.480236555e-10
-4.515337883e-10
-5.496647054e-11
-8.584201069e-11
-1.419991045e-10
-2.145034262e-10
-2.868879537e-10
-3.462453348e-10
-3.881130813e-10
-4.146450727e-10
-4.305235614e-10
-4.398724976e-10
-4.459141807e-10
-4.50808596e-10
-4.551831942e-10
-4.589769898e-10
-5.443192674e-11
-8.517409071e-11
-1.413508835e-10
-2.143471523e-10
-2.877812302e-10
-3.485559066e-10
-3.918679027e-10
-4.195802657e-10
-4.362935665e-10
-4.4619205e-10
-4.526173654e-10
-4.578441285e-10
-4.625391046e-10
-4.666368532e-10
-5.389418961e-11
-8.449718316e-11
-1.406810173e-10
-2.141539831e-10
-2.886300237e-10
-3.508347005e-10
-3.956290627e-10
-4.245715863e-10
-4.421640606e-10
-4.526449157e-10
-4.594782555e-10
-4.650594485e-10
-4.700969444e-10
-4.745204317e-10
-5.33532736e-11
-8.381126398e-11
-1.399892268e-10
-2.139228848e-10
-2.894317943e-10
-3.530772526e-10
-3.993913886e-10
-4.296152616e-10
-4.481336131e-10
-4.592317905e-10
-4.664992579e-10
-4.724585756e-10
-4.778623911e-10
-4.826350328e-10
-5.280919378e-11
-8.311631135e-11
-1.392752375e-10
-2.136528217e-10
-2.901839457e-10
-3.552788547e-10
-4.031491916e-10
-4.347068999e-10
-4.54200281e-10
-4.659530238e-10
-4.736825909e-10
-4.800454951e-10
-4.858412489e-10
-4.909882469e-10
-5.226196584e-11
-8.241230579e-11
-1.385387796e-10
-2.133427577e-10
-2.908838295e-10
-3.574345517e-10
-4.068962299e-10
-4.398414166e-10
-4.603615323e-10
-4.72808559e-10
-4.810302462e-10
-4.878241445e-10
-4.940394571e-10
-4.995879795e-10
-5.171160606e-11
-8.169923018e-11
-1.377795887e-10
-2.129916582e-10
-2.915287492e-10
-3.595391395e-10
-4.106256709e-10
-4.450129523e-10
-4.666141569e-10
-4.797978633e-10
-4.885439425e-10
-4.95798396e-10
-5.024631007e-10
-5.084424911e-10
-5.115813135e-11
-8.097706986e-11
-1.369974059e-10
-2.125984915e-10
-2.921159649e-10
-3.615871656e-10
-4.143300521e-10
-4.502147806e-10
-4.72954161e-10
-4.869198433e-10
-4.962250671e-10
-5.039720337e-10
-5.111184276e-10
-5.175604448e-10
-5.060155924e-11
-8.024581266e-11
-1.361919783e-10
-2.121622304e-10
-2.926426988e-10
-3.635729304e-10
-4.180012421e-10
-4.554392057e-10
-4.793766435e-10
-4.941727431e-10
-5.040746072e-10
-5.123487265e-10
-5.200118741e-10
-5.269509713e-10
-5.00419079e-11
-7.950544895e-11
-1.353630594e-10
-2.116818541e-10
-2.931061411e-10
-3.654904921e-10
-4.216304022e-10
-4.606774476e-10
-4.858756492e-10
-5.015540206e-10
-5.120930654e-10
-5.209319933e-10
-5.291500972e-10
-5.366237553e-10
-4.947919609e-11
-7.875597169e-11
-1.345104092e-10
-2.111563501e-10
-2.935034567e-10
-3.673336737e-10
-4.252079491e-10
-4.65919516e-10
-4.924439951e-10
-5.090601957e-10
-5.202803588e-10
-5.297251603e-10
-5.385400094e-10
-5.465891491e-10
-4.891344324e-11
-7.799737653e-11
-1.336337948e-10
-2.105847159e-10
-2.938317927e-10
-3.690960725e-10
-4.287235205e-10
-4.711540695e-10
-4.990730658e-10
-5.166866615e-10
-5.286356876e-10
-5.387313063e-10
-5.481888112e-10
-5.568583177e-10
-4.834466938e-11
-7.722966181e-11
-1.32732991e-10
-2.09965961e-10
-2.940882858e-10
-3.707710737e-10
-4.321659447e-10
-4.763682628e-10
-5.057525708e-10
-5.244274495e-10
-5.37157363e-10
-5.479531911e-10
-5.581040274e-10
-5.674434126e-10
-4.77728952e-11
-7.645282864e-11
-1.3180778e-10
-2.092991091e-10
-2.942700712e-10
-3.723518674e-10
-4.355232163e-10
-4.815475794e-10
-5.124702556e-10
-5.322749346e-10
-5.458425765e-10
-5.573931535e-10
-5.682935618e-10
-5.783577801e-10
-4.7198142e-11
-7.566688094e-11
-1.308579525e-10
-2.085831994e-10
-2.943742917e-10
-3.738314694e-10
-4.387824801e-10
-4.866756538e-10
-5.192115588e-10
-5.402194659e-10
-5.546871004e-10
-5.670529567e-10
-5.787657734e-10
-5.896162238e-10
-4.662043174e-11
-7.48718255e-11
-1.298833077e-10
-2.078172894e-10
-2.943981076e-10
-3.752027472e-10
-4.419300255e-10
-4.917340844e-10
-5.259592047e-10
-5.482489003e-10
-5.636849021e-10
-5.769335558e-10
-5.895295474e-10
-6.012353676e-10
-4.603978701e-11
-7.406767202e-11
-1.288836535e-10
-2.070004564e-10
-2.943387068e-10
-3.764584499e-10
-4.449512948e-10
-4.967022427e-10
-5.326927242e-10
-5.563480068e-10
-5.728276324e-10
-5.870347749e-10
-6.005943174e-10
-6.132341483e-10
-4.545623104e-11
-7.325443317e-11
-1.278588072e-10
-2.061317996e-10
-2.941933158e-10
-3.775912444e-10
-4.478309088e-10
-5.015570876e-10
-5.39387895e-10
-5.644977045e-10
-5.821039143e-10
-5.973548769e-10
-6.119700385e-10
-6.256344157e-10
-4.48697877e-11
-7.243212463e-11
-1.268085958e-10
-2.052104426e-10
-2.939592114e-10
-3.78593756e-10
-4.505527138e-10
-5.062729932e-10
-5.460160965e-10
-5.726741005e-10
-5.914983411e-10
-6.078899195e-10
-6.236671606e-10
-6.384616483e-10
-4.428048151e-11
-7.16007651e-11
-1.257328563e-10
-2.042355344e-10
-2.936337319e-10
-3.794586155e-10
-4.530998532e-10
-5.10821607e-10
-5.525435781e-10
-5.808472837e-10
-6.009901225e-10
-6.186326905e-10
-6.356965276e-10
-6.517459631e-10
-4.36883376e-11
-7.076037639e-11
-1.246314356e-10
-2.032062525e-10
-2.932142896e-10
-3.801785111e-10
-4.554548706e-10
-5.151717572e-10
-5.589306553e-10
-5.889797926e-10
-6.105513185e-10
-6.295710864e-10
-6.480688856e-10
-6.655235037e-10
-8.780354817e-11
-8.771261586e-11
-8.762118609e-11
-8.752925994e-11
-8.743683853e-11
-8.734392301e-11
-8.725051457e-11
-8.715661442e-11
-8.70622238e-11
-8.6967344e-11
-8.687197633e-11
-8.677612211e-11
-8.667978272e-11
-8.658295957e-11
-8.648565409e-11
-8.638786774e-11
-8.628960201e-11
-8.619085842e-11
-8.609163854e-11
-8.599194395e-11
-8.589177627e-11
-8.579113713e-11
-9.057812091e-11
-9.048130596e-11
-9.038381757e-11
-9.028565701e-11
-9.018682562e-11
-9.008732481e-11
-8.998715604e-11
-8.988632088e-11
-8.978482093e-11
-8.968265787e-11
-8.957983345e-11
-8.947634949e-11
-8.937220786e-11
-8.926741052e-11
-8.916195949e-11
-8.905585685e-11
-8.894910473e-11
-8.884170536e-11
-8.873366101e-11
-8.862497402e-11
-8.85156468e-11
-8.840568182e-11
-9.532418535e-11
-9.521815484e-11
-9.511105244e-11
-9.500288019e-11
-9.48936403e-11
-9.478333516e-11
-9.467196733e-11
-9.455953953e-11
-9.444605466e-11
-9.433151578e-11
-9.421592612e-11
-9.409928908e-11
-9.398160823e-11
-9.386288728e-11
-9.374313013e-11
-9.362234083e-11
-9.350052357e-11
-9.337768274e-11
-9.325382284e-11
-9.312894856e-11
-9.300306472e-11
-9.287617631e-11
-1.018097521e-10
-1.016916601e-10
-1.015717484e-10
-1.014500213e-10
-1.013264837e-10
-1.012011407e-10
-1.010739978e-10
-1.009450612e-10
-1.008143373e-10
-1.006818329e-10
-1.005475552e-10
-1.00411512e-10
-1.002737113e-10
-1.001341615e-10
-9.999287145e-11
-9.984985038e-11
-9.97051079e-11
-9.955865396e-11
-9.941049891e-11
-9.926065347e-11
-9.910912869e-11
-9.895593599e-11
-1.100395219e-10
-1.099052692e-10
-1.097678982e-10
-1.096274187e-10
-1.094838417e-10
-1.093371789e-10
-1.091874433e-10
-1.090346487e-10
-1.088788098e-10
-1.087199426e-10
-1.085580636e-10
-1.083931906e-10
-1.082253423e-10
-1.08054538e-10
-1.078807984e-10
-1.077041446e-10
-1.075245989e-10
-1.073421844e-10
-1.071569249e-10
-1.069688452e-10
-1.067779709e-10
-1.065843283e-10
-1.200900255e-10
-1.199331553e-10
-1.197710209e-10
-1.196036434e-10
-1.194310461e-10
-1.192532545e-10
-1.190702967e-10
-1.188822028e-10
-1.186890053e-10
-1.184907389e-10
-1.182874404e-10
-1.180791489e-10
-1.178659055e-10
-1.176477534e-10
-1.174247381e-10
-1.171969068e-10
-1.169643087e-10
-1.167269952e-10
-1.164850193e-10
-1.162384359e-10
-1.159873018e-10
-1.157316753e-10
-1.320218492e-10
-1.318333424e-10
-1.316361546e-10
-1.314303263e-10
-1.312159031e-10
-1.309929362e-10
-1.307614816e-10
-1.305216004e-10
-1.302733591e-10
-1.300168288e-10
-1.297520856e-10
-1.294792107e-10
-1.291982897e-10
-1.289094131e-10
-1.286126758e-10
-1.283081771e-10
-1.279960208e-10
-1.276763147e-10
-1.273491708e-10
-1.270147049e-10
-1.266730367e-10
-1.263242894e-10
-1.458339123e-10
-1.456030832e-10
-1.453583092e-10
-1.450996604e-10
-1.448272177e-10
-1.445410738e-10
-1.442413321e-10
-1.439281075e-10
-1.436015257e-10
-1.432617233e-10
-1.429088475e-10
-1.42543056e-10
-1.42164517e-10
-1.417734084e-10
-1.41369918e-10
-1.409542432e-10
-1.405265902e-10
-1.400871745e-10
-1.396362198e-10
-1.39173958e-10
-1.387006288e-10
-1.382164794e-10
-1.614400377e-10
-1.611565395e-10
-1.608512606e-10
-1.605243061e-10
-1.601758046e-10
-1.598059079e-10
-1.594147914e-10
-1.590026535e-10
-1.585697157e-10
-1.581162223e-10
-1.576424399e-10
-1.571486567e-10
-1.566351828e-10
-1.561023487e-10
-1.555505053e-10
-1.54980023e-10
-1.54391291e-10
-1.537847167e-10
-1.531607245e-10
-1.525197553e-10
-1.518622656e-10
-1.511887262e-10
-1.786558654e-10
-1.783126106e-10
-1.779363499e-10
-1.775272141e-10
-1.770853797e-10
-1.766110699e-10
-1.76104554e-10
-1.755661476e-10
-1.749962122e-10
-1.743951547e-10
-1.737634264e-10
-1.731015222e-10
-1.7240998e-10
-1.716893788e-10
-1.709403381e-10
-1.701635162e-10
-1.693596084e-10
-1.685293458e-10
-1.67673493e-10
-1.667928465e-10
-1.658882325e-10
-1.649605047e-10
-1.971941764e-10
-1.96790587e-10
-1.963385964e-10
-1.958383164e-10
-1.952899439e-10
-1.946937627e-10
-1.940501433e-10
-1.933595431e-10
-1.926225058e-10
-1.918396606e-10
-1.910117209e-10
-1.901394833e-10
-1.892238256e-10
-1.882657047e-10
-1.872661541e-10
-1.862262815e-10
-1.851472649e-10
-1.840303497e-10
-1.828768447e-10
-1.816881174e-10
-1.804655905e-10
-1.792107366e-10
-2.166708591e-10
-2.162154835e-10
-2.156915849e-10
-2.150991529e-10
-2.14438326e-10
-2.137093938e-10
-2.129127977e-10
-2.12049132e-10
-2.111191436e-10
-2.101237318e-10
-2.090639475e-10
-2.079409914e-10
-2.067562115e-10
-2.055110997e-10
-2.042072875e-10
-2.028465401e-10
-2.014307513e-10
-1.999619356e-10
-1.984422214e-10
-1.968738424e-10
-1.952591286e-10
-1.936004973e-10
-2.366270862e-10
-2.361386336e-10
-2.355566811e-10
-2.348809152e-10
-2.341112636e-10
-2.332478982e-10
-2.322912377e-10
-2.312419516e-10
-2.301009653e-10
-2.288694616e-10
-2.275488805e-10
-2.261409178e-10
-2.246475219e-10
-2.230708891e-10
-2.214134553e-10
-2.196778871e-10
-2.17867071e-10
-2.159841022e-10
-2.140322707e-10
-2.120150455e-10
-2.099360584e-10
-2.077990866e-10
-2.565658677e-10
-2.560719655e-10
-2.55455165e-10
-2.547145852e-10
-2.538497068e-10
-2.52860375e-10
-2.517468081e-10
-2.505096149e-10
-2.491498106e-10
-2.476688212e-10
-2.460684808e-10
-2.443510313e-10
-2.425191231e-10
-2.405758096e-10
-2.38524533e-10
-2.363691086e-10
-2.341137111e-10
-2.317628586e-10
-2.293213883e-10
-2.267944284e-10
-2.241873693e-10
-2.215058357e-10
-2.759992456e-10
-2.755331213e-10
-2.74911271e-10
-2.741319138e-10
-2.731937703e-10
-2.720960708e-10
-2.708385796e-10
-2.694216404e-10
-2.678462055e-10
-2.661138348e-10
-2.642266873e-10
-2.62187532e-10
-2.59999764e-10
-2.576673984e-10
-2.551950431e-10
-2.525878746e-10
-2.498516286e-10
-2.469925825e-10
-2.440175134e-10
-2.409336447e-10
-2.377486023e-10
-2.344703784e-10
-2.944941919e-10
-2.940901041e-10
-2.93495415e-10
-2.927070808e-10
-2.917227105e-10
-2.905405927e-10
-2.891597519e-10
-2.875800224e-10
-2.858020778e-10
-2.838274172e-10
-2.816583692e-10
-2.792981385e-10
-2.767508401e-10
-2.740214806e-10
-2.711159136e-10
-2.680408187e-10
-2.648037065e-10
-2.614129005e-10
-2.578774612e-10
-2.542070972e-10
-2.504121114e-10
-2.465033644e-10
-3.117085049e-10
-3.113972645e-10
-3.108600069e-10
-3.100920917e-10
-3.090896897e-10
-3.07849847e-10
-3.06370572e-10
-3.046509177e-10
-3.026910062e-10
-3.004920194e-10
-2.980562543e-10
-2.95387222e-10
-2.924896691e-10
-2.893695215e-10
-2.860338536e-10
-2.824909067e-10
-2.787501008e-10
-2.748219861e-10
-2.707181342e-10
-2.664510299e-10
-2.620340186e-10
-2.574812595e-10
-3.274090742e-10
-3.272147091e-10
-3.267597531e-10
-3.260377315e-10
-3.250431288e-10
-3.237715024e-10
-3.222195989e-10
-3.203854083e-10
-3.182682224e-10
-3.158686883e-10
-3.131888889e-10
-3.102324656e-10
-3.07004625e-10
-3.035120522e-10
-2.99762936e-10
-2.957670585e-10
-2.915357738e-10
-2.870818934e-10
-2.824195788e-10
-2.77564269e-10
-2.725326167e-10
-2.6734238e-10
-3.414726639e-10
-3.414107919e-10
-3.410557026e-10
-3.403989561e-10
-3.394332134e-10
-3.381523376e-10
-3.365516235e-10
-3.346278017e-10
-3.32379127e-10
-3.298055701e-10
-3.269088377e-10
-3.236924473e-10
-3.201618282e-10
-3.163242697e-10
-3.12188946e-10
-3.077670459e-10
-3.030717373e-10
-2.98118007e-10
-2.929225869e-10
-2.875039298e-10
-2.818821002e-10
-2.760785714e-10
-3.538727874e-10
-3.539505965e-10
-3.537052765e-10
-3.531263244e-10
-3.522045863e-10
-3.509321145e-10
-3.493026201e-10
-3.473115507e-10
-3.449560126e-10
-3.42235125e-10
-3.391500582e-10
-3.3570399e-10
-3.319023661e-10
-3.27752947e-10
-3.232657291e-10
-3.184530646e-10
-3.133297129e-10
-3.079127058e-10
-3.022212602e-10
-2.962767456e-10
-2.901025417e-10
-2.837237897e-10
-3.622465901e-10
-3.624327053e-10
-3.6227494e-10
-3.617610927e-10
-3.608806729e-10
-3.596244151e-10
-3.579847117e-10
-3.559560352e-10
-3.535345987e-10
-3.507187019e-10
-3.475090032e-10
-3.439083808e-10
-3.399221762e-10
-3.355583569e-10
-3.308273999e-10
-3.25742378e-10
-3.203191079e-10
-3.145760676e-10
-3.085342566e-10
-3.022171254e-10
-2.956504547e-10
-2.888621253e-10
-3.672367919e-10
-3.674910779e-10
-3.673889737e-10
-3.66917273e-10
-3.660645374e-10
-3.648207546e-10
-3.631775123e-10
-3.611285612e-10
-3.586695793e-10
-3.557983663e-10
-3.525151893e-10
-3.488227428e-10
-3.447263125e-10
-3.402339152e-10
-3.353562562e-10
-3.301068471e-10
-3.245021518e-10
-3.185615081e-10
-3.123069775e-10
-3.05763268e-10
-2.989576367e-10
-2.919196805e-10
-3.723670067e-10
-3.726952929e-10
-3.726541336e-10
-3.722293433e-10
-3.714084201e-10
-3.701804805e-10
-3.685363158e-10
-3.664688696e-10
-3.639731691e-10
-3.610465178e-10
-3.576887796e-10
-3.539023771e-10
-3.496924655e-10
-3.450670806e-10
-3.400371508e-10
-3.346166371e-10
-3.28822658e-10
-3.226754031e-10
-3.161980121e-10
-3.094165341e-10
-3.023598386e-10
-2.95059366e-10
-3.776421225e-10
-3.78050697e-10
-3.780762148e-10
-3.777034559e-10
-3.769188412e-10
-3.75710479e-10
-3.74068275e-10
-3.719843449e-10
-3.694530063e-10
-3.664710084e-10
-3.630377536e-10
-3.591553012e-10
-3.548286049e-10
-3.500657173e-10
-3.448778027e-10
-3.392792377e-10
-3.332877428e-10
-3.269243658e-10
-3.202134079e-10
-3.131823672e-10
-3.058618063e-10
-2.982850836e-10
-3.830672372e-10
-3.835628166e-10
-3.836612144e-10
-3.833460528e-10
-3.826026201e-10
-3.814179269e-10
-3.79780901e-10
-3.776828071e-10
-3.751172021e-10
-3.720801627e-10
-3.685705279e-10
-3.645899534e-10
-3.601431774e-10
-3.552382332e-10
-3.49886458e-10
-3.441025911e-10
-3.379049501e-10
-3.313154856e-10
-3.243597208e-10
-3.17066656e-10
-3.094686094e-10
-3.016009688e-10
-3.886476058e-10
-3.892374084e-10
-3.894153838e-10
-3.891638563e-10
-3.884668859e-10
-3.873103495e-10
-3.856821318e-10
-3.8357255e-10
-3.809742999e-10
-3.778826947e-10
-3.742959518e-10
-3.702152893e-10
-3.656451795e-10
-3.605935567e-10
-3.550718585e-10
-3.490951598e-10
-3.426823893e-10
-3.358564222e-10
-3.286440213e-10
-3.21075724e-10
-3.131856927e-10
-3.050115006e-10
-3.943886769e-10
-3.950804823e-10
-3.95345232e-10
-3.951638638e-10
-3.945191261e-10
-3.933956934e-10
-3.917803186e-10
-3.896622535e-10
-3.870332396e-10
-3.838877701e-10
-3.802233922e-10
-3.760408173e-10
-3.713441615e-10
-3.661411718e-10
-3.604433322e-10
-3.542660341e-10
-3.476288083e-10
-3.405554395e-10
-3.330739286e-10
-3.252163988e-10
-3.170189739e-10
-3.085215819e-10
-4.002960972e-10
-4.010982693e-10
-4.014575462e-10
-4.013534043e-10
-4.007671967e-10
-3.996822844e-10
-3.980841853e-10
-3.959609906e-10
-3.933034185e-10
-3.90105083e-10
-3.863627844e-10
-3.820766267e-10
-3.772502689e-10
-3.718911933e-10
-3.660108785e-10
-3.596249928e-10
-3.527536273e-10
-3.454214411e-10
-3.376576733e-10
-3.29496096e-10
-3.209749164e-10
-3.12136579e-10
-4.063757148e-10
-4.072972379e-10
-4.077594097e-10
-4.077401445e-10
-4.072193008e-10
-4.061788073e-10
-4.046028545e-10
-4.024782988e-10
-3.997947642e-10
-3.965449003e-10
-3.927246557e-10
-3.883334168e-10
-3.833742913e-10
-3.778544204e-10
-3.717852076e-10
-3.651825274e-10
-3.580669664e-10
-3.504640176e-10
-3.424041626e-10
-3.339228824e-10
-3.250605765e-10
-3.158623562e-10
-4.126335877e-10
-4.136841161e-10
-4.142582035e-10
-4.143320765e-10
-4.138839923e-10
-4.128943434e-10
-4.113459104e-10
-4.092242387e-10
-4.065177664e-10
-4.032180707e-10
-3.993201338e-10
-3.948225199e-10
-3.89727693e-10
-3.840423628e-10
-3.777777602e-10
-3.709498675e-10
-3.635796891e-10
-3.556935074e-10
-3.473230447e-10
-3.385055325e-10
-3.292836525e-10
-3.197053273e-10
-4.190759922e-10
-4.20265899e-10
-4.209616089e-10
-4.21137531e-10
-4.207702138e-10
-4.198384218e-10
-4.183234391e-10
-4.162094078e-10
-4.134834705e-10
-4.10136017e-10
-4.061609535e-10
-4.01555921e-10
-3.963226376e-10
-3.904672673e-10
-3.840007425e-10
-3.769390341e-10
-3.693034737e-10
-3.611210772e-10
-3.524247862e-10
-3.432536008e-10
-3.33652556e-10
-3.236725297e-10
-4.257094295e-10
-4.270498558e-10
-4.278776248e-10
-4.281652069e-10
-4.278873315e-10
-4.270210441e-10
-4.255460311e-10
-4.234449274e-10
-4.207034666e-10
-4.173107429e-10
-4.132594816e-10
-4.085462938e-10
-4.031720302e-10
-3.971421683e-10
-3.904671927e-10
-3.831629237e-10
-3.752509094e-10
-3.667588206e-10
-3.577207696e-10
-3.481775171e-10
-3.381765075e-10
-3.277717182e-10
-4.325406338e-10
-4.340435415e-10
-4.350145899e-10
-4.354241963e-10
-4.352451512e-10
-4.344526834e-10
-4.330247705e-10
-4.309424373e-10
-4.28189903e-10
-4.247548648e-10
-4.206287613e-10
-4.158070516e-10
-4.102895737e-10
-4.040809553e-10
-3.971910621e-10
-3.896354014e-10
-3.814355977e-10
-3.726198638e-10
-3.632234019e-10
-3.532886999e-10
-3.428656512e-10
-3.320114726e-10
-4.395765828e-10
-4.412548135e-10
-4.42381202e-10
-4.429239973e-10
-4.428539212e-10
-4.421442824e-10
-4.407712416e-10
-4.387141185e-10
-4.359555244e-10
-4.324816602e-10
-4.282825616e-10
-4.233523958e-10
-4.176898216e-10
-4.112984334e-10
-4.041872855e-10
-3.9637138e-10
-3.878722391e-10
-3.78718462e-10
-3.689462235e-10
-3.585996755e-10
-3.477311794e-10
-3.364013189e-10
-4.468245108e-10
-4.486918461e-10
-4.499865319e-10
-4.506745233e-10
-4.507243413e-10
-4.501072694e-10
-4.487975561e-10
-4.467727314e-10
-4.440137136e-10
-4.405051047e-10
-4.362354092e-10
-4.311973461e-10
-4.25388211e-10
-4.188103642e-10
-4.114718303e-10
-4.033868789e-10
-3.945767039e-10
-3.850700869e-10
-3.749040129e-10
-3.641241991e-10
-3.527854645e-10
-3.409518641e-10
-4.542919224e-10
-4.563631468e-10
-4.578400399e-10
-4.586861207e-10
-4.588675855e-10
-4.583535886e-10
-4.571163887e-10
-4.55131649e-10
-4.52378516e-10
-4.488398861e-10
-4.44502596e-10
-4.393577497e-10
-4.334010817e-10
-4.266334966e-10
-4.190617409e-10
-4.10699082e-10
-4.015661074e-10
-3.916915205e-10
-3.811129022e-10
-3.698773892e-10
-3.58042206e-10
-3.456749492e-10
-4.619866092e-10
-4.642775771e-10
-4.659515991e-10
-4.669695967e-10
-4.672953328e-10
-4.66895732e-10
-4.657410023e-10
-4.638048715e-10
-4.610646414e-10
-4.575013996e-10
-4.531001766e-10
-4.478502893e-10
-4.417456992e-10
-4.347856085e-10
-4.26975199e-10
-4.183264185e-10
-4.088589119e-10
-3.986009809e-10
-3.875905242e-10
-3.758758925e-10
-3.635166085e-10
-3.50583834e-10
-4.699166701e-10
-4.724443791e-10
-4.74331526e-10
-4.755362536e-10
-4.760197987e-10
-4.757467642e-10
-4.746852602e-10
-4.728070256e-10
-4.700874562e-10
-4.665057399e-10
-4.620449692e-10
-4.566924992e-10
-4.504402904e-10
-4.43285564e-10
-4.352316053e-10
-4.262886701e-10
-4.164750612e-10
-4.058182829e-10
-3.943561967e-10
-3.821380872e-10
-3.692255984e-10
-3.5569342e-10
-4.780905373e-10
-4.80873211e-10
-4.829906153e-10
-4.843979248e-10
-4.850537627e-10
-4.849203385e-10
-4.839636303e-10
-4.821533599e-10
-4.794629766e-10
-4.758696986e-10
-4.713545632e-10
-4.659027855e-10
-4.595040804e-10
-4.521533704e-10
-4.438516615e-10
-4.346070822e-10
-4.244361222e-10
-4.133650106e-10
-4.014311253e-10
-3.886843118e-10
-3.751880722e-10
-3.610205105e-10
-4.865170079e-10
-4.895741883e-10
-4.919401822e-10
-4.935670122e-10
-4.94410596e-10
-4.944307109e-10
-4.935911884e-10
-4.918597414e-10
-4.892078637e-10
-4.856107625e-10
-4.81047321e-10
-4.755004355e-10
-4.68957311e-10
-4.614102138e-10
-4.528574296e-10
-4.43304454e-10
-4.327654108e-10
-4.212646805e-10
-4.088386036e-10
-3.955371011e-10
-3.814251634e-10
-3.665840998e-10
-4.952052823e-10
-4.985579314e-10
-5.011921093e-10
-5.030565254e-10
-5.041042918e-10
-5.042927567e-10
-5.035836252e-10
-5.01942654e-10
-4.993394181e-10
-4.957471052e-10
-4.911423696e-10
-4.855056095e-10
-4.788212406e-10
-4.710784731e-10
-4.622723709e-10
-4.5240521e-10
-4.414881014e-10
-4.295428938e-10
-4.166042105e-10
-4.027214301e-10
-3.879605301e-10
-3.724056966e-10
-5.041650133e-10
-5.078356213e-10
-5.107589067e-10
-5.12880131e-10
-5.141495052e-10
-5.145219953e-10
-5.139572574e-10
-5.124191986e-10
-5.098755688e-10
-5.062975687e-10
-5.016595771e-10
-4.959393217e-10
-4.891181335e-10
-4.811817297e-10
-4.721213851e-10
-4.619354785e-10
-4.506313505e-10
-4.382275075e-10
-4.247560327e-10
-4.102649883e-10