/*--------------------------------*- C++ -*----------------------------------*\
| =========                 |                                                 |
| \\      /  F ield         | OpenFOAM: The Open Source CFD Toolbox           |
|  \\    /   O peration     | Version:  2406                                  |
|   \\  /    A nd           | Website:  www.openfoam.com                      |
|    \\/     M anipulation  |                                                 |
\*---------------------------------------------------------------------------*/
FoamFile
{
    version     2.0;
    format      ascii;
    arch        "LSB;label=32;scalar=64";
    class       volVectorField;
    location    "2e-07/dielectric";
    object      EExt;
}
// * * * * * * * * * * * * * * * * * * * * * * * * * * * * * * * * * * * * * //

dimensions      [1 1 -3 0 0 -1 0];

internalField   nonuniform List<vector> 
3626
(
(39857.1 -55.0575 -0)
(39879 -52.9146 -0)
(39900.2 -50.8209 -0)
(39920.5 -48.7814 -0)
(39939.9 -46.7979 -0)
(39958.5 -44.87 -0)
(39976.2 -42.9947 -0)
(39993.2 -41.1684 -0)
(40009.4 -39.3887 -0)
(40025 -37.6521 -0)
(40039.8 -35.9556 -0)
(40053.9 -34.2975 -0)
(40067.4 -32.6753 -0)
(40080.2 -31.0871 -0)
(40092.4 -29.5313 -0)
(40104 -28.0067 -0)
(40115 -26.5116 -0)
(40125.3 -25.044 -0)
(40135.1 -23.6033 -0)
(40144.3 -22.1876 -0)
(40152.9 -20.7952 -0)
(40161 -19.4252 -0)
(40168.6 -18.076 -0)
(40175.6 -16.7459 -0)
(40182 -15.4336 -0)
(40188 -14.1382 -0)
(40193.4 -12.858 -0)
(40198.3 -11.5914 -0)
(40202.7 -10.3375 -0)
(40206.6 -9.0948 -0)
(40210.1 -7.86179 -0)
(40213 -6.6376 -0)
(40215.4 -5.42072 -0)
(40217.3 -4.20964 -0)
(40218.8 -3.00329 -0)
(40219.8 -1.80061 -0)
(40220.2 -0.600104 -0)
(39877.8 -160.73 -0)
(39899.3 -154.409 -0)
(39920 -148.249 -0)
(39939.8 -142.253 -0)
(39958.7 -136.421 -0)
(39976.7 -130.748 -0)
(39994 -125.226 -0)
(40010.5 -119.848 -0)
(40026.3 -114.608 -0)
(40041.4 -109.498 -0)
(40055.9 -104.511 -0)
(40069.7 -99.642 -0)
(40082.8 -94.8851 -0)
(40095.3 -90.2339 -0)
(40107.2 -85.6841 -0)
(40118.5 -81.2314 -0)
(40129.2 -76.8699 -0)
(40139.3 -72.5941 -0)
(40148.8 -68.4005 -0)
(40157.8 -64.2835 -0)
(40166.2 -60.2378 -0)
(40174.1 -56.2601 -0)
(40181.4 -52.3452 -0)
(40188.2 -48.4877 -0)
(40194.5 -44.6842 -0)
(40200.3 -40.9309 -0)
(40205.6 -37.2228 -0)
(40210.4 -33.5552 -0)
(40214.7 -29.9253 -0)
(40218.5 -26.3284 -0)
(40221.8 -22.7598 -0)
(40224.7 -19.2169 -0)
(40227 -15.695 -0)
(40228.9 -12.1895 -0)
(40230.3 -8.69731 -0)
(40231.3 -5.215 -0)
(40231.7 -1.73804 -0)
(39916.3 -257.035 -0)
(39936.7 -246.913 -0)
(39956.4 -237.068 -0)
(39975.2 -227.49 -0)
(39993.1 -218.171 -0)
(40010.2 -209.101 -0)
(40026.6 -200.268 -0)
(40042.3 -191.66 -0)
(40057.3 -183.269 -0)
(40071.6 -175.084 -0)
(40085.3 -167.094 -0)
(40098.4 -159.294 -0)
(40110.9 -151.674 -0)
(40122.8 -144.225 -0)
(40134.1 -136.939 -0)
(40144.8 -129.809 -0)
(40154.9 -122.827 -0)
(40164.5 -115.984 -0)
(40173.5 -109.272 -0)
(40182 -102.685 -0)
(40190 -96.2124 -0)
(40197.5 -89.8497 -0)
(40204.5 -83.5882 -0)
(40211 -77.4198 -0)
(40217 -71.3386 -0)
(40222.5 -65.3388 -0)
(40227.5 -59.4127 -0)
(40232.1 -53.5525 -0)
(40236.2 -47.7539 -0)
(40239.8 -42.0094 -0)
(40242.9 -36.3114 -0)
(40245.6 -30.6557 -0)
(40247.9 -25.0349 -0)
(40249.7 -19.4416 -0)
(40251 -13.8705 -0)
(40251.9 -8.31625 -0)
(40252.4 -2.77136 -0)
(39968 -342.788 -0)
(39987 -329.294 -0)
(40005.3 -316.167 -0)
(40022.8 -303.395 -0)
(40039.4 -290.968 -0)
(40055.3 -278.873 -0)
(40070.6 -267.095 -0)
(40085.1 -255.616 -0)
(40099.1 -244.427 -0)
(40112.4 -233.513 -0)
(40125.2 -222.86 -0)
(40137.4 -212.461 -0)
(40149 -202.301 -0)
(40160 -192.368 -0)
(40170.5 -182.652 -0)
(40180.4 -173.145 -0)
(40189.9 -163.834 -0)
(40198.8 -154.706 -0)
(40207.2 -145.755 -0)
(40215.1 -136.968 -0)
(40222.5 -128.334 -0)
(40229.5 -119.846 -0)
(40236 -111.494 -0)
(40242 -103.265 -0)
(40247.6 -95.1532 -0)
(40252.7 -87.1499 -0)
(40257.4 -79.2449 -0)
(40261.6 -71.4279 -0)
(40265.4 -63.6933 -0)
(40268.7 -56.0308 -0)
(40271.7 -48.4305 -0)
(40274.2 -40.8867 -0)
(40276.3 -33.3896 -0)
(40277.9 -25.9293 -0)
(40279.2 -18.4988 -0)
(40280 -11.0909 -0)
(40280.4 -3.69599 -0)
(40030.2 -417.449 -0)
(40047.5 -400.999 -0)
(40064.2 -384.996 -0)
(40080 -369.425 -0)
(40095.1 -354.274 -0)
(40109.6 -339.53 -0)
(40123.4 -325.171 -0)
(40136.6 -311.179 -0)
(40149.3 -297.543 -0)
(40161.4 -284.243 -0)
(40172.9 -271.264 -0)
(40184 -258.595 -0)
(40194.5 -246.219 -0)
(40204.5 -234.121 -0)
(40214 -222.288 -0)
(40223.1 -210.71 -0)
(40231.6 -199.371 -0)
(40239.7 -188.256 -0)
(40247.4 -177.356 -0)
(40254.5 -166.657 -0)
(40261.3 -156.144 -0)
(40267.6 -145.81 -0)
(40273.5 -135.642 -0)
(40279 -125.625 -0)
(40284 -115.751 -0)
(40288.7 -106.01 -0)
(40292.9 -96.39 -0)
(40296.8 -86.8784 -0)
(40300.2 -77.4681 -0)
(40303.3 -68.1465 -0)
(40306 -58.9015 -0)
(40308.2 -49.726 -0)
(40310.1 -40.6078 -0)
(40311.7 -31.5346 -0)
(40312.8 -22.4979 -0)
(40313.5 -13.4887 -0)
(40313.9 -4.49504 -0)
(40099.5 -480.997 -0)
(40114.9 -462.028 -0)
(40129.8 -443.579 -0)
(40143.8 -425.631 -0)
(40157.2 -408.17 -0)
(40170 -391.178 -0)
(40182.3 -374.631 -0)
(40194 -358.506 -0)
(40205.2 -342.792 -0)
(40216 -327.466 -0)
(40226.3 -312.509 -0)
(40236.1 -297.91 -0)
(40245.4 -283.649 -0)
(40254.3 -269.708 -0)
(40262.7 -256.073 -0)
(40270.8 -242.732 -0)
(40278.3 -229.666 -0)
(40285.5 -216.859 -0)
(40292.3 -204.299 -0)
(40298.7 -191.971 -0)
(40304.7 -179.858 -0)
(40310.3 -167.951 -0)
(40315.5 -156.235 -0)
(40320.4 -144.694 -0)
(40324.9 -133.318 -0)
(40329 -122.096 -0)
(40332.7 -111.014 -0)
(40336.1 -100.057 -0)
(40339.2 -89.2165 -0)
(40341.9 -78.4793 -0)
(40344.3 -67.8308 -0)
(40346.3 -57.2628 -0)
(40348 -46.7614 -0)
(40349.3 -36.3125 -0)
(40350.3 -25.9059 -0)
(40351 -15.5317 -0)
(40351.3 -5.1758 -0)
(40173.7 -533.73 -0)
(40187.1 -512.662 -0)
(40199.9 -492.173 -0)
(40212.1 -472.242 -0)
(40223.7 -452.853 -0)
(40234.7 -433.986 -0)
(40245.2 -415.614 -0)
(40255.4 -397.713 -0)
(40265.1 -380.267 -0)
(40274.3 -363.254 -0)
(40283.2 -346.651 -0)
(40291.6 -330.446 -0)
(40299.7 -314.617 -0)
(40307.4 -299.143 -0)
(40314.7 -284.01 -0)
(40321.6 -269.204 -0)
(40328.1 -254.703 -0)
(40334.3 -240.49 -0)
(40340.2 -226.553 -0)
(40345.7 -212.874 -0)
(40350.9 -199.435 -0)
(40355.7 -186.226 -0)
(40360.2 -173.229 -0)
(40364.4 -160.428 -0)
(40368.3 -147.812 -0)
(40371.9 -135.367 -0)
(40375.1 -123.079 -0)
(40378.1 -110.93 -0)
(40380.7 -98.9117 -0)
(40383.1 -87.0078 -0)
(40385.1 -75.2025 -0)
(40386.8 -63.4866 -0)
(40388.3 -51.8444 -0)
(40389.4 -40.2602 -0)
(40390.3 -28.7227 -0)
(40390.9 -17.2208 -0)
(40391.2 -5.73874 -0)
(40250.4 -576.301 -0)
(40261.6 -553.539 -0)
(40272.4 -531.404 -0)
(40282.6 -509.874 -0)
(40292.3 -488.93 -0)
(40301.5 -468.552 -0)
(40310.3 -448.709 -0)
(40318.8 -429.375 -0)
(40326.9 -410.534 -0)
(40334.7 -392.16 -0)
(40342.1 -374.231 -0)
(40349.1 -356.731 -0)
(40355.9 -339.638 -0)
(40362.3 -322.929 -0)
(40368.4 -306.588 -0)
(40374.2 -290.599 -0)
(40379.7 -274.941 -0)
(40384.9 -259.593 -0)
(40389.8 -244.543 -0)
(40394.4 -229.771 -0)
(40398.7 -215.259 -0)
(40402.8 -200.996 -0)
(40406.6 -186.963 -0)
(40410.1 -173.142 -0)
(40413.3 -159.521 -0)
(40416.3 -146.086 -0)
(40419 -132.82 -0)
(40421.5 -119.706 -0)
(40423.7 -106.734 -0)
(40425.6 -93.8865 -0)
(40427.3 -81.146 -0)
(40428.7 -68.5027 -0)
(40429.9 -55.9395 -0)
(40430.9 -43.4396 -0)
(40431.6 -30.9906 -0)
(40432.1 -18.5803 -0)
(40432.3 -6.19173 -0)
(40328 -609.451 -0)
(40337.1 -585.36 -0)
(40345.8 -561.932 -0)
(40354 -539.146 -0)
(40361.7 -516.982 -0)
(40369 -495.417 -0)
(40376.1 -474.42 -0)
(40382.9 -453.962 -0)
(40389.4 -434.027 -0)
(40395.6 -414.588 -0)
(40401.5 -395.619 -0)
(40407.2 -377.108 -0)
(40412.6 -359.027 -0)
(40417.8 -341.354 -0)
(40422.7 -324.072 -0)
(40427.3 -307.163 -0)
(40431.7 -290.605 -0)
(40435.9 -274.376 -0)
(40439.8 -258.464 -0)
(40443.5 -242.848 -0)
(40447 -227.507 -0)
(40450.3 -212.43 -0)
(40453.3 -197.597 -0)
(40456.1 -182.989 -0)
(40458.7 -168.593 -0)
(40461.1 -154.395 -0)
(40463.3 -140.375 -0)
(40465.2 -126.516 -0)
(40467 -112.807 -0)
(40468.5 -99.229 -0)
(40469.9 -85.7642 -0)
(40471 -72.4019 -0)
(40472 -59.1241 -0)
(40472.8 -45.9128 -0)
(40473.3 -32.7552 -0)
(40473.7 -19.6383 -0)
(40473.9 -6.54434 -0)
(40404.9 -634.068 -0)
(40411.8 -608.987 -0)
(40418.5 -584.599 -0)
(40424.7 -560.882 -0)
(40430.5 -537.814 -0)
(40436 -515.371 -0)
(40441.4 -493.519 -0)
(40446.5 -472.229 -0)
(40451.4 -451.484 -0)
(40456.1 -431.256 -0)
(40460.5 -411.518 -0)
(40464.8 -392.255 -0)
(40468.9 -373.441 -0)
(40472.8 -355.051 -0)
(40476.5 -337.067 -0)
(40480 -319.472 -0)
(40483.3 -302.242 -0)
(40486.5 -285.355 -0)
(40489.5 -268.798 -0)
(40492.3 -252.55 -0)
(40494.9 -236.589 -0)
(40497.3 -220.904 -0)
(40499.6 -205.474 -0)
(40501.8 -190.28 -0)
(40503.7 -175.306 -0)
(40505.5 -160.54 -0)
(40507.1 -145.96 -0)
(40508.6 -131.548 -0)
(40509.9 -117.292 -0)
(40511.1 -103.174 -0)
(40512.1 -89.1736 -0)
(40513 -75.28 -0)
(40513.7 -61.4744 -0)
(40514.3 -47.7381 -0)
(40514.7 -34.0575 -0)
(40515 -20.4192 -0)
(40515.1 -6.80458 -0)
(40480.2 -651.027 -0)
(40485 -625.252 -0)
(40489.7 -600.192 -0)
(40493.9 -575.822 -0)
(40497.8 -552.122 -0)
(40501.5 -529.066 -0)
(40505.1 -506.619 -0)
(40508.6 -484.751 -0)
(40511.9 -463.444 -0)
(40515.1 -442.669 -0)
(40518.2 -422.399 -0)
(40521.1 -402.619 -0)
(40523.9 -383.301 -0)
(40526.5 -364.419 -0)
(40529.1 -345.955 -0)
(40531.5 -327.891 -0)
(40533.8 -310.203 -0)
(40535.9 -292.867 -0)
(40538 -275.871 -0)
(40539.9 -259.193 -0)
(40541.7 -242.81 -0)
(40543.3 -226.711 -0)
(40544.9 -210.875 -0)
(40546.3 -195.281 -0)
(40547.7 -179.914 -0)
(40548.9 -164.759 -0)
(40550 -149.797 -0)
(40551 -135.007 -0)
(40551.9 -120.377 -0)
(40552.6 -105.887 -0)
(40553.3 -91.5186 -0)
(40553.9 -77.2598 -0)
(40554.4 -63.0911 -0)
(40554.8 -48.9935 -0)
(40555.1 -34.9531 -0)
(40555.2 -20.9561 -0)
(40555.3 -6.9835 -0)
(40552.9 -661.264 -0)
(40555.7 -635.067 -0)
(40558.4 -609.599 -0)
(40560.7 -584.835 -0)
(40562.8 -560.752 -0)
(40564.8 -537.324 -0)
(40566.8 -514.517 -0)
(40568.6 -492.297 -0)
(40570.5 -470.649 -0)
(40572.2 -449.541 -0)
(40573.9 -428.948 -0)
(40575.5 -408.852 -0)
(40577 -389.226 -0)
(40578.5 -370.043 -0)
(40579.9 -351.286 -0)
(40581.2 -332.935 -0)
(40582.5 -314.967 -0)
(40583.6 -297.358 -0)
(40584.8 -280.096 -0)
(40585.8 -263.157 -0)
(40586.8 -246.52 -0)
(40587.7 -230.172 -0)
(40588.6 -214.092 -0)
(40589.4 -198.259 -0)
(40590.1 -182.657 -0)
(40590.7 -167.271 -0)
(40591.3 -152.081 -0)
(40591.9 -137.066 -0)
(40592.3 -122.213 -0)
(40592.7 -107.504 -0)
(40593.1 -92.9165 -0)
(40593.4 -78.4405 -0)
(40593.7 -64.0558 -0)
(40593.9 -49.743 -0)
(40594 -35.488 -0)
(40594.1 -21.2769 -0)
(40594.2 -7.09044 -0)
(40622.5 -665.627 -0)
(40623.4 -639.238 -0)
(40624.2 -613.585 -0)
(40624.7 -588.643 -0)
(40625 -564.39 -0)
(40625.4 -540.799 -0)
(40625.7 -517.832 -0)
(40626.1 -495.46 -0)
(40626.4 -473.663 -0)
(40626.8 -452.412 -0)
(40627.1 -431.68 -0)
(40627.5 -411.449 -0)
(40627.8 -391.691 -0)
(40628.1 -372.381 -0)
(40628.4 -353.499 -0)
(40628.7 -335.027 -0)
(40629 -316.941 -0)
(40629.3 -299.217 -0)
(40629.5 -281.843 -0)
(40629.8 -264.795 -0)
(40630 -248.053 -0)
(40630.2 -231.602 -0)
(40630.3 -215.421 -0)
(40630.5 -199.489 -0)
(40630.6 -183.791 -0)
(40630.7 -168.31 -0)
(40630.9 -153.026 -0)
(40630.9 -137.918 -0)
(40631 -122.974 -0)
(40631.1 -108.173 -0)
(40631.1 -93.4957 -0)
(40631.2 -78.9299 -0)
(40631.2 -64.4557 -0)
(40631.3 -50.0538 -0)
(40631.3 -35.7099 -0)
(40631.3 -21.41 -0)
(40631.3 -7.1348 -0)
(40688.6 -664.965 -0)
(40687.6 -638.587 -0)
(40686.6 -612.945 -0)
(40685.3 -588.017 -0)
(40684 -563.778 -0)
(40682.8 -540.201 -0)
(40681.6 -517.25 -0)
(40680.5 -494.893 -0)
(40679.5 -473.111 -0)
(40678.6 -451.877 -0)
(40677.7 -431.16 -0)
(40676.8 -410.946 -0)
(40676 -391.204 -0)
(40675.2 -371.91 -0)
(40674.5 -353.045 -0)
(40673.8 -334.59 -0)
(40673.2 -316.522 -0)
(40672.6 -298.817 -0)
(40672 -281.463 -0)
(40671.4 -264.436 -0)
(40670.9 -247.714 -0)
(40670.4 -231.285 -0)
(40669.9 -215.127 -0)
(40669.5 -199.218 -0)
(40669.1 -183.541 -0)
(40668.7 -168.083 -0)
(40668.3 -152.821 -0)
(40668 -137.734 -0)
(40667.7 -122.811 -0)
(40667.4 -108.031 -0)
(40667.2 -93.3734 -0)
(40667 -78.8272 -0)
(40666.8 -64.3723 -0)
(40666.7 -49.9892 -0)
(40666.6 -35.6639 -0)
(40666.5 -21.3825 -0)
(40666.5 -7.12565 -0)
(40750.8 -660.034 -0)
(40748.1 -633.837 -0)
(40745.4 -608.371 -0)
(40742.5 -583.617 -0)
(40739.6 -559.549 -0)
(40736.9 -536.139 -0)
(40734.3 -513.351 -0)
(40731.9 -491.154 -0)
(40729.5 -469.529 -0)
(40727.3 -448.447 -0)
(40725.2 -427.881 -0)
(40723.2 -407.812 -0)
(40721.4 -388.214 -0)
(40719.6 -369.06 -0)
(40717.9 -350.333 -0)
(40716.3 -332.014 -0)
(40714.8 -314.08 -0)
(40713.3 -296.507 -0)
(40711.9 -279.284 -0)
(40710.7 -262.387 -0)
(40709.4 -245.794 -0)
(40708.3 -229.492 -0)
(40707.2 -213.459 -0)
(40706.2 -197.674 -0)
(40705.3 -182.12 -0)
(40704.4 -166.783 -0)
(40703.6 -151.64 -0)
(40702.9 -136.671 -0)
(40702.2 -121.864 -0)
(40701.6 -107.199 -0)
(40701.1 -92.655 -0)
(40700.7 -78.2212 -0)
(40700.3 -63.8778 -0)
(40700.1 -49.6055 -0)
(40699.8 -35.3903 -0)
(40699.7 -21.2185 -0)
(40699.6 -7.07102 -0)
(40809.1 -651.541 -0)
(40804.7 -625.668 -0)
(40800.5 -600.518 -0)
(40796 -576.073 -0)
(40791.7 -552.307 -0)
(40787.5 -529.191 -0)
(40783.6 -506.69 -0)
(40779.9 -484.773 -0)
(40776.4 -463.421 -0)
(40773 -442.606 -0)
(40769.8 -422.3 -0)
(40766.7 -402.486 -0)
(40763.9 -383.136 -0)
(40761.1 -364.226 -0)
(40758.5 -345.738 -0)
(40756 -327.654 -0)
(40753.7 -309.951 -0)
(40751.5 -292.606 -0)
(40749.4 -275.607 -0)
(40747.4 -258.931 -0)
(40745.5 -242.556 -0)
(40743.7 -226.47 -0)
(40742.1 -210.649 -0)
(40740.5 -195.072 -0)
(40739.1 -179.725 -0)
(40737.8 -164.59 -0)
(40736.6 -149.647 -0)
(40735.5 -134.876 -0)
(40734.5 -120.265 -0)
(40733.7 -105.793 -0)
(40732.9 -91.4402 -0)
(40732.2 -77.1961 -0)
(40731.7 -63.0409 -0)
(40731.3 -48.9557 -0)
(40731 -34.9268 -0)
(40730.7 -20.9406 -0)
(40730.6 -6.97842 -0)
(40863.5 -640.118 -0)
(40857.5 -614.687 -0)
(40851.8 -589.967 -0)
(40845.9 -565.942 -0)
(40840.2 -542.586 -0)
(40834.7 -519.869 -0)
(40829.6 -497.757 -0)
(40824.7 -476.218 -0)
(40820 -455.236 -0)
(40815.5 -434.782 -0)
(40811.3 -414.827 -0)
(40807.3 -395.356 -0)
(40803.4 -376.342 -0)
(40799.8 -357.761 -0)
(40796.3 -339.594 -0)
(40793.1 -321.827 -0)
(40789.9 -304.434 -0)
(40787 -287.396 -0)
(40784.2 -270.698 -0)
(40781.6 -254.318 -0)
(40779.1 -238.235 -0)
(40776.7 -222.436 -0)
(40774.6 -206.898 -0)
(40772.5 -191.6 -0)
(40770.6 -176.527 -0)
(40768.9 -161.662 -0)
(40767.3 -146.987 -0)
(40765.9 -132.479 -0)
(40764.6 -118.128 -0)
(40763.5 -103.913 -0)
(40762.5 -89.8164 -0)
(40761.6 -75.8255 -0)
(40760.9 -61.9218 -0)
(40760.4 -48.0867 -0)
(40759.9 -34.3069 -0)
(40759.7 -20.5689 -0)
(40759.5 -6.85456 -0)
(40913.9 -626.328 -0)
(40906.5 -601.434 -0)
(40899.4 -577.239 -0)
(40892.2 -553.723 -0)
(40885.2 -530.865 -0)
(40878.5 -508.633 -0)
(40872.2 -486.992 -0)
(40866.2 -465.912 -0)
(40860.5 -445.378 -0)
(40855 -425.359 -0)
(40849.8 -405.83 -0)
(40844.9 -386.774 -0)
(40840.2 -368.166 -0)
(40835.7 -349.982 -0)
(40831.4 -332.205 -0)
(40827.4 -314.819 -0)
(40823.6 -297.802 -0)
(40819.9 -281.133 -0)
(40816.5 -264.797 -0)
(40813.3 -248.775 -0)
(40810.2 -233.043 -0)
(40807.3 -217.588 -0)
(40804.7 -202.39 -0)
(40802.2 -187.426 -0)
(40799.9 -172.682 -0)
(40797.8 -158.143 -0)
(40795.8 -143.787 -0)
(40794.1 -129.596 -0)
(40792.5 -115.557 -0)
(40791.1 -101.653 -0)
(40789.9 -87.8623 -0)
(40788.9 -74.1758 -0)
(40788 -60.5746 -0)
(40787.3 -47.0405 -0)
(40786.8 -33.5604 -0)
(40786.5 -20.1214 -0)
(40786.3 -6.7054 -0)
(40960.5 -610.664 -0)
(40951.8 -586.385 -0)
(40943.4 -562.787 -0)
(40934.9 -539.853 -0)
(40926.8 -517.562 -0)
(40919 -495.882 -0)
(40911.6 -474.778 -0)
(40904.6 -454.221 -0)
(40897.9 -434.195 -0)
(40891.5 -414.673 -0)
(40885.4 -395.628 -0)
(40879.6 -377.044 -0)
(40874.1 -358.898 -0)
(40868.8 -341.165 -0)
(40863.9 -323.831 -0)
(40859.1 -306.879 -0)
(40854.6 -290.289 -0)
(40850.4 -274.038 -0)
(40846.3 -258.114 -0)
(40842.5 -242.496 -0)
(40839 -227.162 -0)
(40835.6 -212.098 -0)
(40832.5 -197.284 -0)
(40829.6 -182.699 -0)
(40826.9 -168.327 -0)
(40824.4 -154.155 -0)
(40822.1 -140.162 -0)
(40820.1 -126.328 -0)
(40818.3 -112.644 -0)
(40816.6 -99.0895 -0)
(40815.2 -85.6468 -0)
(40814 -72.3053 -0)
(40813 -59.0469 -0)
(40812.2 -45.8539 -0)
(40811.6 -32.7138 -0)
(40811.2 -19.6137 -0)
(40811 -6.5362 -0)
(41003.4 -593.56 -0)
(40993.5 -569.955 -0)
(40983.9 -547.011 -0)
(40974.3 -524.715 -0)
(40965.1 -503.044 -0)
(40956.3 -481.968 -0)
(40947.9 -461.451 -0)
(40939.9 -441.466 -0)
(40932.3 -421.997 -0)
(40925.1 -403.017 -0)
(40918.2 -384.501 -0)
(40911.6 -366.433 -0)
(40905.3 -348.791 -0)
(40899.4 -331.552 -0)
(40893.7 -314.702 -0)
(40888.3 -298.225 -0)
(40883.2 -282.1 -0)
(40878.4 -266.307 -0)
(40873.8 -250.832 -0)
(40869.5 -235.655 -0)
(40865.4 -220.753 -0)
(40861.6 -206.115 -0)
(40858.1 -191.72 -0)
(40854.8 -177.546 -0)
(40851.7 -163.581 -0)
(40848.9 -149.808 -0)
(40846.4 -136.209 -0)
(40844.1 -122.766 -0)
(40842 -109.467 -0)
(40840.2 -96.2942 -0)
(40838.6 -83.2303 -0)
(40837.2 -70.2647 -0)
(40836.1 -57.3802 -0)
(40835.2 -44.5594 -0)
(40834.5 -31.79 -0)
(40834 -19.0598 -0)
(40833.8 -6.3516 -0)
(41042.8 -575.391 -0)
(41031.8 -552.503 -0)
(41021.1 -530.256 -0)
(41010.5 -508.639 -0)
(41000.2 -487.629 -0)
(40990.5 -467.194 -0)
(40981.2 -447.302 -0)
(40972.4 -427.925 -0)
(40964 -409.048 -0)
(40955.9 -390.644 -0)
(40948.3 -372.69 -0)
(40941 -355.172 -0)
(40934 -338.066 -0)
(40927.4 -321.352 -0)
(40921.1 -305.016 -0)
(40915.2 -289.044 -0)
(40909.5 -273.414 -0)
(40904.1 -258.106 -0)
(40899 -243.108 -0)
(40894.2 -228.398 -0)
(40889.7 -213.957 -0)
(40885.5 -199.77 -0)
(40881.6 -185.818 -0)
(40877.9 -172.081 -0)
(40874.5 -158.545 -0)
(40871.4 -145.196 -0)
(40868.6 -132.015 -0)
(40866.1 -118.985 -0)
(40863.8 -106.095 -0)
(40861.7 -93.3273 -0)
(40860 -80.6652 -0)
(40858.5 -68.0986 -0)
(40857.2 -55.6108 -0)
(40856.2 -43.185 -0)
(40855.4 -30.8093 -0)
(40854.9 -18.4717 -0)
(40854.7 -6.1556 -0)
(41079 -556.479 -0)
(41066.9 -534.339 -0)
(41055.2 -512.82 -0)
(41043.6 -491.909 -0)
(41032.4 -471.588 -0)
(41021.8 -451.823 -0)
(41011.7 -432.581 -0)
(41002.1 -413.837 -0)
(40992.9 -395.576 -0)
(40984.2 -377.774 -0)
(40975.8 -360.406 -0)
(40967.9 -343.459 -0)
(40960.3 -326.912 -0)
(40953.1 -310.745 -0)
(40946.2 -294.945 -0)
(40939.7 -279.498 -0)
(40933.5 -264.383 -0)
(40927.7 -249.581 -0)
(40922.1 -235.078 -0)
(40916.9 -220.855 -0)
(40912 -206.891 -0)
(40907.4 -193.173 -0)
(40903.1 -179.682 -0)
(40899.1 -166.398 -0)
(40895.4 -153.309 -0)
(40892.1 -140.4 -0)
(40889 -127.654 -0)
(40886.2 -115.053 -0)
(40883.7 -102.588 -0)
(40881.5 -90.2411 -0)
(40879.6 -77.9968 -0)
(40877.9 -65.8452 -0)
(40876.6 -53.77 -0)
(40875.5 -41.7552 -0)
(40874.7 -29.7891 -0)
(40874.1 -17.8599 -0)
(40873.8 -5.9517 -0)
(41112 -537.099 -0)
(41099 -515.726 -0)
(41086.4 -494.953 -0)
(41073.9 -474.768 -0)
(41061.9 -455.153 -0)
(41050.5 -436.075 -0)
(41039.6 -417.5 -0)
(41029.3 -399.405 -0)
(41019.4 -381.776 -0)
(41010 -364.59 -0)
(41001 -347.822 -0)
(40992.5 -331.462 -0)
(40984.3 -315.488 -0)
(40976.6 -299.883 -0)
(40969.2 -284.632 -0)
(40962.2 -269.724 -0)
(40955.5 -255.137 -0)
(40949.2 -240.852 -0)
(40943.2 -226.858 -0)
(40937.6 -213.132 -0)
(40932.3 -199.657 -0)
(40927.4 -186.419 -0)
(40922.8 -173.399 -0)
(40918.5 -160.579 -0)
(40914.5 -147.947 -0)
(40910.9 -135.488 -0)
(40907.6 -123.187 -0)
(40904.6 -111.026 -0)
(40901.9 -98.9954 -0)
(40899.6 -87.08 -0)
(40897.5 -75.2636 -0)
(40895.7 -63.5371 -0)
(40894.3 -51.8846 -0)
(40893.1 -40.2907 -0)
(40892.2 -28.7441 -0)
(40891.6 -17.2333 -0)
(40891.3 -5.74286 -0)
(41142.1 -517.478 -0)
(41128.2 -496.884 -0)
(41114.8 -476.867 -0)
(41101.5 -457.416 -0)
(41088.7 -438.516 -0)
(41076.6 -420.133 -0)
(41065.1 -402.234 -0)
(41054.1 -384.796 -0)
(41043.6 -367.808 -0)
(41033.6 -351.245 -0)
(41024 -335.087 -0)
(41014.9 -319.32 -0)
(41006.3 -303.928 -0)
(40998 -288.891 -0)
(40990.1 -274.198 -0)
(40982.6 -259.835 -0)
(40975.5 -245.783 -0)
(40968.8 -232.022 -0)
(40962.4 -218.541 -0)
(40956.5 -205.32 -0)
(40950.8 -192.338 -0)
(40945.6 -179.585 -0)
(40940.7 -167.042 -0)
(40936.1 -154.692 -0)
(40931.9 -142.521 -0)
(40928.1 -130.518 -0)
(40924.6 -118.666 -0)
(40921.4 -106.95 -0)
(40918.6 -95.36 -0)
(40916 -83.881 -0)
(40913.8 -72.4977 -0)
(40912 -61.2014 -0)
(40910.4 -49.9767 -0)
(40909.1 -38.8088 -0)
(40908.2 -27.6867 -0)
(40907.6 -16.5993 -0)
(40907.3 -5.53155 -0)
(41169.5 -497.809 -0)
(41154.9 -477.994 -0)
(41140.7 -458.735 -0)
(41126.7 -440.021 -0)
(41113.2 -421.838 -0)
(41100.4 -404.151 -0)
(41088.3 -386.93 -0)
(41076.7 -370.152 -0)
(41065.6 -353.806 -0)
(41055.1 -337.869 -0)
(41045 -322.321 -0)
(41035.4 -307.151 -0)
(41026.2 -292.342 -0)
(41017.5 -277.877 -0)
(41009.2 -263.742 -0)
(41001.3 -249.927 -0)
(40993.8 -236.411 -0)
(40986.7 -223.175 -0)
(40980 -210.209 -0)
(40973.6 -197.491 -0)
(40967.7 -185.005 -0)
(40962.2 -172.737 -0)
(40957 -160.672 -0)
(40952.2 -148.791 -0)
(40947.8 -137.084 -0)
(40943.8 -125.537 -0)
(40940 -114.136 -0)
(40936.7 -102.865 -0)
(40933.7 -91.7168 -0)
(40931 -80.6752 -0)
(40928.7 -69.7261 -0)
(40926.7 -58.8609 -0)
(40925.1 -48.065 -0)
(40923.8 -37.324 -0)
(40922.8 -26.6272 -0)
(40922.1 -15.964 -0)
(40921.8 -5.31984 -0)
(41194.5 -478.253 -0)
(41179.1 -459.213 -0)
(41164.3 -440.707 -0)
(41149.6 -422.725 -0)
(41135.5 -405.254 -0)
(41122.1 -388.26 -0)
(41109.4 -371.712 -0)
(41097.2 -355.59 -0)
(41085.6 -339.882 -0)
(41074.6 -324.569 -0)
(41064 -309.629 -0)
(41054 -295.054 -0)
(41044.4 -280.825 -0)
(41035.2 -266.928 -0)
(41026.5 -253.35 -0)
(41018.2 -240.079 -0)
(41010.4 -227.096 -0)
(41002.9 -214.382 -0)
(40995.9 -201.927 -0)
(40989.3 -189.711 -0)
(40983.1 -177.715 -0)
(40977.3 -165.931 -0)
(40971.9 -154.34 -0)
(40966.9 -142.926 -0)
(40962.2 -131.678 -0)
(40958 -120.586 -0)
(40954.1 -109.633 -0)
(40950.6 -98.8056 -0)
(40947.5 -88.0957 -0)
(40944.7 -77.489 -0)
(40942.2 -66.9715 -0)
(40940.2 -56.535 -0)
(40938.4 -46.1653 -0)
(40937.1 -35.8486 -0)
(40936 -25.5745 -0)
(40935.3 -15.3329 -0)
(40935 -5.1095 -0)
(41217.1 -458.939 -0)
(41201.1 -440.663 -0)
(41185.7 -422.901 -0)
(41170.4 -405.64 -0)
(41155.7 -388.871 -0)
(41141.8 -372.56 -0)
(41128.5 -356.678 -0)
(41115.9 -341.204 -0)
(41103.8 -326.128 -0)
(41092.3 -311.43 -0)
(41081.4 -297.092 -0)
(41070.9 -283.104 -0)
(41060.9 -269.451 -0)
(41051.3 -256.116 -0)
(41042.3 -243.088 -0)
(41033.6 -230.355 -0)
(41025.4 -217.898 -0)
(41017.7 -205.7 -0)
(41010.4 -193.749 -0)
(41003.5 -182.027 -0)
(40997 -170.517 -0)
(40991 -159.209 -0)
(40985.4 -148.086 -0)
(40980.1 -137.134 -0)
(40975.3 -126.34 -0)
(40970.9 -115.696 -0)
(40966.9 -105.186 -0)
(40963.2 -94.7963 -0)
(40960 -84.52 -0)
(40957.1 -74.343 -0)
(40954.5 -64.2519 -0)
(40952.4 -54.2387 -0)
(40950.6 -44.29 -0)
(40949.1 -34.3922 -0)
(40948 -24.5355 -0)
(40947.3 -14.7099 -0)
(40947 -4.90189 -0)
(41237.7 -439.972 -0)
(41221.1 -422.445 -0)
(41205.1 -405.412 -0)
(41189.2 -388.86 -0)
(41174 -372.778 -0)
(41159.6 -357.136 -0)
(41145.9 -341.907 -0)
(41132.8 -327.069 -0)
(41120.4 -312.614 -0)
(41108.4 -298.522 -0)
(41097.1 -284.776 -0)
(41086.2 -271.367 -0)
(41075.8 -258.279 -0)
(41066 -245.498 -0)
(41056.5 -233.011 -0)
(41047.6 -220.806 -0)
(41039.1 -208.866 -0)
(41031.1 -197.174 -0)
(41023.5 -185.718 -0)
(41016.4 -174.481 -0)
(41009.7 -163.448 -0)
(41003.4 -152.607 -0)
(40997.6 -141.944 -0)
(40992.2 -131.444 -0)
(40987.2 -121.097 -0)
(40982.6 -110.893 -0)
(40978.5 -100.818 -0)
(40974.7 -90.8593 -0)
(40971.3 -81.009 -0)
(40968.3 -71.2542 -0)
(40965.7 -61.5819 -0)
(40963.4 -51.9846 -0)
(40961.6 -42.4491 -0)
(40960.1 -32.9626 -0)
(40959 -23.5156 -0)
(40958.2 -14.0984 -0)
(40957.8 -4.69813 -0)
(41256.4 -421.433 -0)
(41239.2 -404.637 -0)
(41222.7 -388.316 -0)
(41206.3 -372.456 -0)
(41190.7 -357.044 -0)
(41175.8 -342.055 -0)
(41161.7 -327.463 -0)
(41148.2 -313.247 -0)
(41135.3 -299.399 -0)
(41123 -285.901 -0)
(41111.3 -272.734 -0)
(41100.1 -259.892 -0)
(41089.4 -247.358 -0)
(41079.2 -235.118 -0)
(41069.5 -223.16 -0)
(41060.3 -211.472 -0)
(41051.5 -200.038 -0)
(41043.2 -188.84 -0)
(41035.4 -177.868 -0)
(41028 -167.105 -0)
(41021.1 -156.537 -0)
(41014.7 -146.153 -0)
(41008.7 -135.94 -0)
(41003.1 -125.883 -0)
(40998 -115.972 -0)
(40993.3 -106.199 -0)
(40989 -96.5493 -0)
(40985.1 -87.0115 -0)
(40981.6 -77.5778 -0)
(40978.5 -68.2358 -0)
(40975.8 -58.973 -0)
(40973.5 -49.7821 -0)
(40971.5 -40.6507 -0)
(40970 -31.5661 -0)
(40968.8 -22.5193 -0)
(40968.1 -13.5011 -0)
(40967.7 -4.49909 -0)
(41273.3 -403.384 -0)
(41255.7 -387.299 -0)
(41238.7 -371.672 -0)
(41221.9 -356.485 -0)
(41205.7 -341.724 -0)
(41190.5 -327.369 -0)
(41176 -313.396 -0)
(41162.1 -299.787 -0)
(41148.9 -286.53 -0)
(41136.3 -273.61 -0)
(41124.2 -261.009 -0)
(41112.7 -248.72 -0)
(41101.7 -236.727 -0)
(41091.2 -225.015 -0)
(41081.2 -213.572 -0)
(41071.7 -202.387 -0)
(41062.7 -191.444 -0)
(41054.2 -180.727 -0)
(41046.2 -170.226 -0)
(41038.6 -159.924 -0)
(41031.5 -149.809 -0)
(41024.9 -139.87 -0)
(41018.7 -130.094 -0)
(41013 -120.468 -0)
(41007.8 -110.983 -0)
(41002.9 -101.629 -0)
(40998.5 -92.3942 -0)
(40994.5 -83.2663 -0)
(40990.9 -74.2384 -0)
(40987.7 -65.2984 -0)
(40984.9 -56.4344 -0)
(40982.5 -47.6392 -0)
(40980.6 -38.9008 -0)
(40979 -30.2073 -0)
(40977.8 -21.55 -0)
(40977 -12.92 -0)
(40976.6 -4.30546 -0)
(41288.9 -385.474 -0)
(41270.9 -370.093 -0)
(41253.4 -355.154 -0)
(41236.2 -340.636 -0)
(41219.7 -326.522 -0)
(41204 -312.797 -0)
(41189.2 -299.44 -0)
(41175 -286.432 -0)
(41161.4 -273.763 -0)
(41148.5 -261.417 -0)
(41136.1 -249.378 -0)
(41124.3 -237.638 -0)
(41113 -226.181 -0)
(41102.3 -214.992 -0)
(41092.1 -204.061 -0)
(41082.3 -193.375 -0)
(41073.1 -182.919 -0)
(41064.4 -172.679 -0)
(41056.1 -162.644 -0)
(41048.4 -152.8 -0)
(41041.1 -143.134 -0)
(41034.4 -133.636 -0)
(41028 -124.295 -0)
(41022.2 -115.097 -0)
(41016.8 -106.034 -0)
(41011.8 -97.0962 -0)
(41007.3 -88.2729 -0)
(41003.2 -79.552 -0)
(40999.5 -70.9268 -0)
(40996.2 -62.3856 -0)
(40993.4 -53.9171 -0)
(40990.9 -45.5143 -0)
(40988.9 -37.1658 -0)
(40987.3 -28.8601 -0)
(40986.1 -20.5889 -0)
(40985.3 -12.3439 -0)
(40984.9 -4.11347 -0)
(41303.8 -367.23 -0)
(41285.3 -352.568 -0)
(41267.4 -338.329 -0)
(41249.8 -324.492 -0)
(41232.9 -311.04 -0)
(41216.9 -297.959 -0)
(41201.7 -285.23 -0)
(41187.2 -272.836 -0)
(41173.3 -260.767 -0)
(41160.1 -249.006 -0)
(41147.4 -237.539 -0)
(41135.3 -226.357 -0)
(41123.8 -215.445 -0)
(41112.8 -204.788 -0)
(41102.3 -194.377 -0)
(41092.4 -184.198 -0)
(41082.9 -174.238 -0)
(41074 -164.483 -0)
(41065.6 -154.923 -0)
(41057.7 -145.546 -0)
(41050.2 -136.337 -0)
(41043.3 -127.289 -0)
(41036.9 -118.39 -0)
(41030.9 -109.628 -0)
(41025.3 -100.995 -0)
(41020.3 -92.482 -0)
(41015.6 -84.0778 -0)
(41011.4 -75.7713 -0)
(41007.7 -67.556 -0)
(41004.3 -59.4209 -0)
(41001.4 -51.355 -0)
(40998.9 -43.3517 -0)
(40996.8 -35.4 -0)
(40995.2 -27.489 -0)
(40993.9 -19.6108 -0)
(40993.1 -11.7575 -0)
(40992.7 -3.91808 -0)
(41317.9 -348.563 -0)
(41299 -334.638 -0)
(41280.8 -321.117 -0)
(41262.8 -307.978 -0)
(41245.5 -295.205 -0)
(41229.2 -282.785 -0)
(41213.6 -270.701 -0)
(41198.8 -258.935 -0)
(41184.6 -247.479 -0)
(41171.1 -236.317 -0)
(41158.2 -225.435 -0)
(41145.8 -214.823 -0)
(41134 -204.468 -0)
(41122.8 -194.355 -0)
(41112.1 -184.474 -0)
(41101.9 -174.814 -0)
(41092.3 -165.361 -0)
(41083.2 -156.101 -0)
(41074.6 -147.028 -0)
(41066.5 -138.127 -0)
(41058.9 -129.386 -0)
(41051.8 -120.799 -0)
(41045.2 -112.353 -0)
(41039.1 -104.037 -0)
(41033.5 -95.8437 -0)
(41028.3 -87.7646 -0)
(41023.5 -79.789 -0)
(41019.3 -71.9063 -0)
(41015.4 -64.1103 -0)
(41012 -56.3903 -0)
(41009 -48.7359 -0)
(41006.5 -41.1409 -0)
(41004.4 -33.5949 -0)
(41002.7 -26.0874 -0)
(41001.4 -18.611 -0)
(41000.6 -11.158 -0)
(41000.1 -3.71833 -0)
(41331.3 -329.494 -0)
(41312 -316.325 -0)
(41293.4 -303.539 -0)
(41275 -291.114 -0)
(41257.4 -279.036 -0)
(41240.8 -267.293 -0)
(41224.9 -255.868 -0)
(41209.8 -244.745 -0)
(41195.3 -233.915 -0)
(41181.5 -223.365 -0)
(41168.3 -213.079 -0)
(41155.8 -203.049 -0)
(41143.7 -193.262 -0)
(41132.3 -183.703 -0)
(41121.4 -174.363 -0)
(41111 -165.232 -0)
(41101.1 -156.296 -0)
(41091.8 -147.544 -0)
(41083.1 -138.966 -0)
(41074.8 -130.552 -0)
(41067.1 -122.29 -0)
(41059.9 -114.173 -0)
(41053.2 -106.189 -0)
(41046.9 -98.3295 -0)
(41041.2 -90.5854 -0)
(41035.9 -82.9495 -0)
(41031.1 -75.4115 -0)
(41026.7 -67.9614 -0)
(41022.8 -60.5933 -0)
(41019.3 -53.297 -0)
(41016.3 -46.0627 -0)
(41013.7 -38.8845 -0)
(41011.5 -31.7524 -0)
(41009.8 -24.6568 -0)
(41008.5 -17.5904 -0)
(41007.6 -10.5462 -0)
(41007.2 -3.51444 -0)
(41343.9 -310.046 -0)
(41324.3 -297.65 -0)
(41305.3 -285.615 -0)
(41286.6 -273.92 -0)
(41268.7 -262.552 -0)
(41251.7 -251.499 -0)
(41235.6 -240.747 -0)
(41220.2 -230.28 -0)
(41205.4 -220.09 -0)
(41191.4 -210.162 -0)
(41177.9 -200.484 -0)
(41165.1 -191.047 -0)
(41152.9 -181.838 -0)
(41141.2 -172.844 -0)
(41130.1 -164.056 -0)
(41119.5 -155.464 -0)
(41109.5 -147.056 -0)
(41100 -138.819 -0)
(41091.1 -130.748 -0)
(41082.7 -122.831 -0)
(41074.9 -115.056 -0)
(41067.5 -107.419 -0)
(41060.7 -99.9072 -0)
(41054.3 -92.512 -0)
(41048.4 -85.2259 -0)
(41043.1 -78.0418 -0)
(41038.1 -70.95 -0)
(41033.7 -63.9409 -0)
(41029.7 -57.0088 -0)
(41026.2 -50.1444 -0)
(41023.1 -43.3382 -0)
(41020.4 -36.5847 -0)
(41018.2 -29.8746 -0)
(41016.5 -23.1986 -0)
(41015.1 -16.5502 -0)
(41014.3 -9.92255 -0)
(41013.8 -3.30663 -0)
(41355.8 -290.243 -0)
(41335.8 -278.635 -0)
(41316.5 -267.365 -0)
(41297.5 -256.414 -0)
(41279.3 -245.77 -0)
(41262 -235.422 -0)
(41245.6 -225.355 -0)
(41229.9 -215.556 -0)
(41214.9 -206.017 -0)
(41200.6 -196.724 -0)
(41187 -187.664 -0)
(41173.9 -178.83 -0)
(41161.5 -170.21 -0)
(41149.6 -161.791 -0)
(41138.3 -153.564 -0)
(41127.5 -145.52 -0)
(41117.4 -137.649 -0)
(41107.7 -129.939 -0)
(41098.7 -122.383 -0)
(41090.1 -114.971 -0)
(41082.1 -107.694 -0)
(41074.6 -100.544 -0)
(41067.7 -93.5133 -0)
(41061.2 -86.5912 -0)
(41055.3 -79.7714 -0)
(41049.8 -73.0472 -0)
(41044.8 -66.4093 -0)
(41040.3 -59.849 -0)
(41036.2 -53.3608 -0)
(41032.6 -46.9358 -0)
(41029.5 -40.5653 -0)
(41026.8 -34.2441 -0)
(41024.5 -27.9634 -0)
(41022.7 -21.7146 -0)
(41021.4 -15.4915 -0)
(41020.5 -9.28782 -0)
(41020.1 -3.09511 -0)
(41366.9 -270.106 -0)
(41346.5 -259.301 -0)
(41326.9 -248.81 -0)
(41307.6 -238.617 -0)
(41289.1 -228.71 -0)
(41271.6 -219.078 -0)
(41254.9 -209.709 -0)
(41239 -200.59 -0)
(41223.8 -191.712 -0)
(41209.2 -183.064 -0)