/*--------------------------------*- C++ -*----------------------------------*\
| =========                 |                                                 |
| \\      /  F ield         | OpenFOAM: The Open Source CFD Toolbox           |
|  \\    /   O peration     | Version:  2406                                  |
|   \\  /    A nd           | Website:  www.openfoam.com                      |
|    \\/     M anipulation  |                                                 |
\*---------------------------------------------------------------------------*/
FoamFile
{
    version     2.0;
    format      ascii;
    arch        "LSB;label=32;scalar=64";
    class       volVectorField;
    location    "2e-07/dielectric";
    object      EExtAmp;
}
// * * * * * * * * * * * * * * * * * * * * * * * * * * * * * * * * * * * * * //

dimensions      [1 1 -3 0 0 -1 0];

internalField   nonuniform List<vector> 
3626
(
(39.8571 -0.0550575 -0)
(39.879 -0.0529146 -0)
(39.9002 -0.0508209 -0)
(39.9205 -0.0487814 -0)
(39.9399 -0.0467979 -0)
(39.9585 -0.04487 -0)
(39.9762 -0.0429947 -0)
(39.9932 -0.0411684 -0)
(40.0094 -0.0393887 -0)
(40.025 -0.0376521 -0)
(40.0398 -0.0359556 -0)
(40.0539 -0.0342975 -0)
(40.0674 -0.0326753 -0)
(40.0802 -0.0310871 -0)
(40.0924 -0.0295313 -0)
(40.104 -0.0280067 -0)
(40.115 -0.0265116 -0)
(40.1253 -0.025044 -0)
(40.1351 -0.0236033 -0)
(40.1443 -0.0221876 -0)
(40.1529 -0.0207952 -0)
(40.161 -0.0194252 -0)
(40.1686 -0.018076 -0)
(40.1756 -0.0167459 -0)
(40.182 -0.0154336 -0)
(40.188 -0.0141382 -0)
(40.1934 -0.012858 -0)
(40.1983 -0.0115914 -0)
(40.2027 -0.0103375 -0)
(40.2066 -0.0090948 -0)
(40.2101 -0.00786179 -0)
(40.213 -0.0066376 -0)
(40.2154 -0.00542072 -0)
(40.2173 -0.00420964 -0)
(40.2188 -0.00300329 -0)
(40.2198 -0.00180061 -0)
(40.2202 -0.000600104 -0)
(39.8778 -0.16073 -0)
(39.8993 -0.154409 -0)
(39.92 -0.148249 -0)
(39.9398 -0.142253 -0)
(39.9587 -0.136421 -0)
(39.9767 -0.130748 -0)
(39.994 -0.125226 -0)
(40.0105 -0.119848 -0)
(40.0263 -0.114608 -0)
(40.0414 -0.109498 -0)
(40.0559 -0.104511 -0)
(40.0697 -0.099642 -0)
(40.0828 -0.0948851 -0)
(40.0953 -0.0902339 -0)
(40.1072 -0.0856841 -0)
(40.1185 -0.0812314 -0)
(40.1292 -0.0768699 -0)
(40.1393 -0.0725941 -0)
(40.1488 -0.0684005 -0)
(40.1578 -0.0642835 -0)
(40.1662 -0.0602378 -0)
(40.1741 -0.0562601 -0)
(40.1814 -0.0523452 -0)
(40.1882 -0.0484877 -0)
(40.1945 -0.0446842 -0)
(40.2003 -0.0409309 -0)
(40.2056 -0.0372228 -0)
(40.2104 -0.0335552 -0)
(40.2147 -0.0299253 -0)
(40.2185 -0.0263284 -0)
(40.2218 -0.0227598 -0)
(40.2247 -0.0192169 -0)
(40.227 -0.015695 -0)
(40.2289 -0.0121895 -0)
(40.2303 -0.00869731 -0)
(40.2313 -0.005215 -0)
(40.2317 -0.00173804 -0)
(39.9163 -0.257035 -0)
(39.9367 -0.246913 -0)
(39.9564 -0.237068 -0)
(39.9752 -0.22749 -0)
(39.9931 -0.218171 -0)
(40.0102 -0.209101 -0)
(40.0266 -0.200268 -0)
(40.0423 -0.19166 -0)
(40.0573 -0.183269 -0)
(40.0716 -0.175084 -0)
(40.0853 -0.167094 -0)
(40.0984 -0.159294 -0)
(40.1109 -0.151674 -0)
(40.1228 -0.144225 -0)
(40.1341 -0.136939 -0)
(40.1448 -0.129809 -0)
(40.1549 -0.122827 -0)
(40.1645 -0.115984 -0)
(40.1735 -0.109272 -0)
(40.182 -0.102685 -0)
(40.19 -0.0962124 -0)
(40.1975 -0.0898497 -0)
(40.2045 -0.0835882 -0)
(40.211 -0.0774198 -0)
(40.217 -0.0713386 -0)
(40.2225 -0.0653388 -0)
(40.2275 -0.0594127 -0)
(40.2321 -0.0535525 -0)
(40.2362 -0.0477539 -0)
(40.2398 -0.0420094 -0)
(40.2429 -0.0363114 -0)
(40.2456 -0.0306557 -0)
(40.2479 -0.0250349 -0)
(40.2497 -0.0194416 -0)
(40.251 -0.0138705 -0)
(40.2519 -0.00831625 -0)
(40.2524 -0.00277136 -0)
(39.968 -0.342788 -0)
(39.987 -0.329294 -0)
(40.0053 -0.316167 -0)
(40.0228 -0.303395 -0)
(40.0394 -0.290968 -0)
(40.0553 -0.278873 -0)
(40.0706 -0.267095 -0)
(40.0851 -0.255616 -0)
(40.0991 -0.244427 -0)
(40.1124 -0.233513 -0)
(40.1252 -0.22286 -0)
(40.1374 -0.212461 -0)
(40.149 -0.202301 -0)
(40.16 -0.192368 -0)
(40.1705 -0.182652 -0)
(40.1804 -0.173145 -0)
(40.1899 -0.163834 -0)
(40.1988 -0.154706 -0)
(40.2072 -0.145755 -0)
(40.2151 -0.136968 -0)
(40.2225 -0.128334 -0)
(40.2295 -0.119846 -0)
(40.236 -0.111494 -0)
(40.242 -0.103265 -0)
(40.2476 -0.0951532 -0)
(40.2527 -0.0871499 -0)
(40.2574 -0.0792449 -0)
(40.2616 -0.0714279 -0)
(40.2654 -0.0636933 -0)
(40.2687 -0.0560308 -0)
(40.2717 -0.0484305 -0)
(40.2742 -0.0408867 -0)
(40.2763 -0.0333896 -0)
(40.2779 -0.0259293 -0)
(40.2792 -0.0184988 -0)
(40.28 -0.0110909 -0)
(40.2804 -0.00369599 -0)
(40.0302 -0.417449 -0)
(40.0475 -0.400999 -0)
(40.0642 -0.384996 -0)
(40.08 -0.369425 -0)
(40.0951 -0.354274 -0)
(40.1096 -0.33953 -0)
(40.1234 -0.325171 -0)
(40.1366 -0.311179 -0)
(40.1493 -0.297543 -0)
(40.1614 -0.284243 -0)
(40.1729 -0.271264 -0)
(40.184 -0.258595 -0)
(40.1945 -0.246219 -0)
(40.2045 -0.234121 -0)
(40.214 -0.222288 -0)
(40.2231 -0.21071 -0)
(40.2316 -0.199371 -0)
(40.2397 -0.188256 -0)
(40.2474 -0.177356 -0)
(40.2545 -0.166657 -0)
(40.2613 -0.156144 -0)
(40.2676 -0.14581 -0)
(40.2735 -0.135642 -0)
(40.279 -0.125625 -0)
(40.284 -0.115751 -0)
(40.2887 -0.10601 -0)
(40.2929 -0.09639 -0)
(40.2968 -0.0868784 -0)
(40.3002 -0.0774681 -0)
(40.3033 -0.0681465 -0)
(40.306 -0.0589015 -0)
(40.3082 -0.049726 -0)
(40.3101 -0.0406078 -0)
(40.3117 -0.0315346 -0)
(40.3128 -0.0224979 -0)
(40.3135 -0.0134887 -0)
(40.3139 -0.00449504 -0)
(40.0995 -0.480997 -0)
(40.1149 -0.462028 -0)
(40.1298 -0.443579 -0)
(40.1438 -0.425631 -0)
(40.1572 -0.40817 -0)
(40.17 -0.391178 -0)
(40.1823 -0.374631 -0)
(40.194 -0.358506 -0)
(40.2052 -0.342792 -0)
(40.216 -0.327466 -0)
(40.2263 -0.312509 -0)
(40.2361 -0.29791 -0)
(40.2454 -0.283649 -0)
(40.2543 -0.269708 -0)
(40.2627 -0.256073 -0)
(40.2708 -0.242732 -0)
(40.2783 -0.229666 -0)
(40.2855 -0.216859 -0)
(40.2923 -0.204299 -0)
(40.2987 -0.191971 -0)
(40.3047 -0.179858 -0)
(40.3103 -0.167951 -0)
(40.3155 -0.156235 -0)
(40.3204 -0.144694 -0)
(40.3249 -0.133318 -0)
(40.329 -0.122096 -0)
(40.3327 -0.111014 -0)
(40.3361 -0.100057 -0)
(40.3392 -0.0892165 -0)
(40.3419 -0.0784793 -0)
(40.3443 -0.0678308 -0)
(40.3463 -0.0572628 -0)
(40.348 -0.0467614 -0)
(40.3493 -0.0363125 -0)
(40.3503 -0.0259059 -0)
(40.351 -0.0155317 -0)
(40.3513 -0.0051758 -0)
(40.1737 -0.53373 -0)
(40.1871 -0.512662 -0)
(40.1999 -0.492173 -0)
(40.2121 -0.472242 -0)
(40.2237 -0.452853 -0)
(40.2347 -0.433986 -0)
(40.2452 -0.415614 -0)
(40.2554 -0.397713 -0)
(40.2651 -0.380267 -0)
(40.2743 -0.363254 -0)
(40.2832 -0.346651 -0)
(40.2916 -0.330446 -0)
(40.2997 -0.314617 -0)
(40.3074 -0.299143 -0)
(40.3147 -0.28401 -0)
(40.3216 -0.269204 -0)
(40.3281 -0.254703 -0)
(40.3343 -0.24049 -0)
(40.3402 -0.226553 -0)
(40.3457 -0.212874 -0)
(40.3509 -0.199435 -0)
(40.3557 -0.186226 -0)
(40.3602 -0.173229 -0)
(40.3644 -0.160428 -0)
(40.3683 -0.147812 -0)
(40.3719 -0.135367 -0)
(40.3751 -0.123079 -0)
(40.3781 -0.11093 -0)
(40.3807 -0.0989117 -0)
(40.3831 -0.0870078 -0)
(40.3851 -0.0752025 -0)
(40.3868 -0.0634866 -0)
(40.3883 -0.0518444 -0)
(40.3894 -0.0402602 -0)
(40.3903 -0.0287227 -0)
(40.3909 -0.0172208 -0)
(40.3912 -0.00573874 -0)
(40.2504 -0.576301 -0)
(40.2616 -0.553539 -0)
(40.2724 -0.531404 -0)
(40.2826 -0.509874 -0)
(40.2923 -0.48893 -0)
(40.3015 -0.468552 -0)
(40.3103 -0.448709 -0)
(40.3188 -0.429375 -0)
(40.3269 -0.410534 -0)
(40.3347 -0.39216 -0)
(40.3421 -0.374231 -0)
(40.3491 -0.356731 -0)
(40.3559 -0.339638 -0)
(40.3623 -0.322929 -0)
(40.3684 -0.306588 -0)
(40.3742 -0.290599 -0)
(40.3797 -0.274941 -0)
(40.3849 -0.259593 -0)
(40.3898 -0.244543 -0)
(40.3944 -0.229771 -0)
(40.3987 -0.215259 -0)
(40.4028 -0.200996 -0)
(40.4066 -0.186963 -0)
(40.4101 -0.173142 -0)
(40.4133 -0.159521 -0)
(40.4163 -0.146086 -0)
(40.419 -0.13282 -0)
(40.4215 -0.119706 -0)
(40.4237 -0.106734 -0)
(40.4256 -0.0938865 -0)
(40.4273 -0.081146 -0)
(40.4287 -0.0685027 -0)
(40.4299 -0.0559395 -0)
(40.4309 -0.0434396 -0)
(40.4316 -0.0309906 -0)
(40.4321 -0.0185803 -0)
(40.4323 -0.00619173 -0)
(40.328 -0.609451 -0)
(40.3371 -0.58536 -0)
(40.3458 -0.561932 -0)
(40.354 -0.539146 -0)
(40.3617 -0.516982 -0)
(40.369 -0.495417 -0)
(40.3761 -0.47442 -0)
(40.3829 -0.453962 -0)
(40.3894 -0.434027 -0)
(40.3956 -0.414588 -0)
(40.4015 -0.395619 -0)
(40.4072 -0.377108 -0)
(40.4126 -0.359027 -0)
(40.4178 -0.341354 -0)
(40.4227 -0.324072 -0)
(40.4273 -0.307163 -0)
(40.4317 -0.290605 -0)
(40.4359 -0.274376 -0)
(40.4398 -0.258464 -0)
(40.4435 -0.242848 -0)
(40.447 -0.227507 -0)
(40.4503 -0.21243 -0)
(40.4533 -0.197597 -0)
(40.4561 -0.182989 -0)
(40.4587 -0.168593 -0)
(40.4611 -0.154395 -0)
(40.4633 -0.140375 -0)
(40.4652 -0.126516 -0)
(40.467 -0.112807 -0)
(40.4685 -0.099229 -0)
(40.4699 -0.0857642 -0)
(40.471 -0.0724019 -0)
(40.472 -0.0591241 -0)
(40.4728 -0.0459128 -0)
(40.4733 -0.0327552 -0)
(40.4737 -0.0196383 -0)
(40.4739 -0.00654434 -0)
(40.4049 -0.634068 -0)
(40.4118 -0.608987 -0)
(40.4185 -0.584599 -0)
(40.4247 -0.560882 -0)
(40.4305 -0.537814 -0)
(40.436 -0.515371 -0)
(40.4414 -0.493519 -0)
(40.4465 -0.472229 -0)
(40.4514 -0.451484 -0)
(40.4561 -0.431256 -0)
(40.4605 -0.411518 -0)
(40.4648 -0.392255 -0)
(40.4689 -0.373441 -0)
(40.4728 -0.355051 -0)
(40.4765 -0.337067 -0)
(40.48 -0.319472 -0)
(40.4833 -0.302242 -0)
(40.4865 -0.285355 -0)
(40.4895 -0.268798 -0)
(40.4923 -0.25255 -0)
(40.4949 -0.236589 -0)
(40.4973 -0.220904 -0)
(40.4996 -0.205474 -0)
(40.5018 -0.19028 -0)
(40.5037 -0.175306 -0)
(40.5055 -0.16054 -0)
(40.5071 -0.14596 -0)
(40.5086 -0.131548 -0)
(40.5099 -0.117292 -0)
(40.5111 -0.103174 -0)
(40.5121 -0.0891736 -0)
(40.513 -0.07528 -0)
(40.5137 -0.0614744 -0)
(40.5143 -0.0477381 -0)
(40.5147 -0.0340575 -0)
(40.515 -0.0204192 -0)
(40.5151 -0.00680458 -0)
(40.4802 -0.651027 -0)
(40.485 -0.625252 -0)
(40.4897 -0.600192 -0)
(40.4939 -0.575822 -0)
(40.4978 -0.552122 -0)
(40.5015 -0.529066 -0)
(40.5051 -0.506619 -0)
(40.5086 -0.484751 -0)
(40.5119 -0.463444 -0)
(40.5151 -0.442669 -0)
(40.5182 -0.422399 -0)
(40.5211 -0.402619 -0)
(40.5239 -0.383301 -0)
(40.5265 -0.364419 -0)
(40.5291 -0.345955 -0)
(40.5315 -0.327891 -0)
(40.5338 -0.310203 -0)
(40.5359 -0.292867 -0)
(40.538 -0.275871 -0)
(40.5399 -0.259193 -0)
(40.5417 -0.24281 -0)
(40.5433 -0.226711 -0)
(40.5449 -0.210875 -0)
(40.5463 -0.195281 -0)
(40.5477 -0.179914 -0)
(40.5489 -0.164759 -0)
(40.55 -0.149797 -0)
(40.551 -0.135007 -0)
(40.5519 -0.120377 -0)
(40.5526 -0.105887 -0)
(40.5533 -0.0915186 -0)
(40.5539 -0.0772598 -0)
(40.5544 -0.0630911 -0)
(40.5548 -0.0489935 -0)
(40.5551 -0.0349531 -0)
(40.5552 -0.0209561 -0)
(40.5553 -0.0069835 -0)
(40.5529 -0.661264 -0)
(40.5557 -0.635067 -0)
(40.5584 -0.609599 -0)
(40.5607 -0.584835 -0)
(40.5628 -0.560752 -0)
(40.5648 -0.537324 -0)
(40.5668 -0.514517 -0)
(40.5686 -0.492297 -0)
(40.5705 -0.470649 -0)
(40.5722 -0.449541 -0)
(40.5739 -0.428948 -0)
(40.5755 -0.408852 -0)
(40.577 -0.389226 -0)
(40.5785 -0.370043 -0)
(40.5799 -0.351286 -0)
(40.5812 -0.332935 -0)
(40.5825 -0.314967 -0)
(40.5836 -0.297358 -0)
(40.5848 -0.280096 -0)
(40.5858 -0.263157 -0)
(40.5868 -0.24652 -0)
(40.5877 -0.230172 -0)
(40.5886 -0.214092 -0)
(40.5894 -0.198259 -0)
(40.5901 -0.182657 -0)
(40.5907 -0.167271 -0)
(40.5913 -0.152081 -0)
(40.5919 -0.137066 -0)
(40.5923 -0.122213 -0)
(40.5927 -0.107504 -0)
(40.5931 -0.0929165 -0)
(40.5934 -0.0784405 -0)
(40.5937 -0.0640558 -0)
(40.5939 -0.049743 -0)
(40.594 -0.035488 -0)
(40.5941 -0.0212769 -0)
(40.5942 -0.00709044 -0)
(40.6225 -0.665627 -0)
(40.6234 -0.639238 -0)
(40.6242 -0.613585 -0)
(40.6247 -0.588643 -0)
(40.625 -0.56439 -0)
(40.6254 -0.540799 -0)
(40.6257 -0.517832 -0)
(40.6261 -0.49546 -0)
(40.6264 -0.473663 -0)
(40.6268 -0.452412 -0)
(40.6271 -0.43168 -0)
(40.6275 -0.411449 -0)
(40.6278 -0.391691 -0)
(40.6281 -0.372381 -0)
(40.6284 -0.353499 -0)
(40.6287 -0.335027 -0)
(40.629 -0.316941 -0)
(40.6293 -0.299217 -0)
(40.6295 -0.281843 -0)
(40.6298 -0.264795 -0)
(40.63 -0.248053 -0)
(40.6302 -0.231602 -0)
(40.6303 -0.215421 -0)
(40.6305 -0.199489 -0)
(40.6306 -0.183791 -0)
(40.6307 -0.16831 -0)
(40.6309 -0.153026 -0)
(40.6309 -0.137918 -0)
(40.631 -0.122974 -0)
(40.6311 -0.108173 -0)
(40.6311 -0.0934957 -0)
(40.6312 -0.0789299 -0)
(40.6312 -0.0644557 -0)
(40.6313 -0.0500538 -0)
(40.6313 -0.0357099 -0)
(40.6313 -0.02141 -0)
(40.6313 -0.0071348 -0)
(40.6886 -0.664965 -0)
(40.6876 -0.638587 -0)
(40.6866 -0.612945 -0)
(40.6853 -0.588017 -0)
(40.684 -0.563778 -0)
(40.6828 -0.540201 -0)
(40.6816 -0.51725 -0)
(40.6805 -0.494893 -0)
(40.6795 -0.473111 -0)
(40.6786 -0.451877 -0)
(40.6777 -0.43116 -0)
(40.6768 -0.410946 -0)
(40.676 -0.391204 -0)
(40.6752 -0.37191 -0)
(40.6745 -0.353045 -0)
(40.6738 -0.33459 -0)
(40.6732 -0.316522 -0)
(40.6726 -0.298817 -0)
(40.672 -0.281463 -0)
(40.6714 -0.264436 -0)
(40.6709 -0.247714 -0)
(40.6704 -0.231285 -0)
(40.6699 -0.215127 -0)
(40.6695 -0.199218 -0)
(40.6691 -0.183541 -0)
(40.6687 -0.168083 -0)
(40.6683 -0.152821 -0)
(40.668 -0.137734 -0)
(40.6677 -0.122811 -0)
(40.6674 -0.108031 -0)
(40.6672 -0.0933734 -0)
(40.667 -0.0788272 -0)
(40.6668 -0.0643723 -0)
(40.6667 -0.0499892 -0)
(40.6666 -0.0356639 -0)
(40.6665 -0.0213825 -0)
(40.6665 -0.00712565 -0)
(40.7508 -0.660034 -0)
(40.7481 -0.633837 -0)
(40.7454 -0.608371 -0)
(40.7425 -0.583617 -0)
(40.7396 -0.559549 -0)
(40.7369 -0.536139 -0)
(40.7343 -0.513351 -0)
(40.7319 -0.491154 -0)
(40.7295 -0.469529 -0)
(40.7273 -0.448447 -0)
(40.7252 -0.427881 -0)
(40.7232 -0.407812 -0)
(40.7214 -0.388214 -0)
(40.7196 -0.36906 -0)
(40.7179 -0.350333 -0)
(40.7163 -0.332014 -0)
(40.7148 -0.31408 -0)
(40.7133 -0.296507 -0)
(40.7119 -0.279284 -0)
(40.7107 -0.262387 -0)
(40.7094 -0.245794 -0)
(40.7083 -0.229492 -0)
(40.7072 -0.213459 -0)
(40.7062 -0.197674 -0)
(40.7053 -0.18212 -0)
(40.7044 -0.166783 -0)
(40.7036 -0.15164 -0)
(40.7029 -0.136671 -0)
(40.7022 -0.121864 -0)
(40.7016 -0.107199 -0)
(40.7011 -0.092655 -0)
(40.7007 -0.0782212 -0)
(40.7003 -0.0638778 -0)
(40.7001 -0.0496055 -0)
(40.6998 -0.0353903 -0)
(40.6997 -0.0212185 -0)
(40.6996 -0.00707102 -0)
(40.8091 -0.651541 -0)
(40.8047 -0.625668 -0)
(40.8005 -0.600518 -0)
(40.796 -0.576073 -0)
(40.7917 -0.552307 -0)
(40.7875 -0.529191 -0)
(40.7836 -0.50669 -0)
(40.7799 -0.484773 -0)
(40.7764 -0.463421 -0)
(40.773 -0.442606 -0)
(40.7698 -0.4223 -0)
(40.7667 -0.402486 -0)
(40.7639 -0.383136 -0)
(40.7611 -0.364226 -0)
(40.7585 -0.345738 -0)
(40.756 -0.327654 -0)
(40.7537 -0.309951 -0)
(40.7515 -0.292606 -0)
(40.7494 -0.275607 -0)
(40.7474 -0.258931 -0)
(40.7455 -0.242556 -0)
(40.7437 -0.22647 -0)
(40.7421 -0.210649 -0)
(40.7405 -0.195072 -0)
(40.7391 -0.179725 -0)
(40.7378 -0.16459 -0)
(40.7366 -0.149647 -0)
(40.7355 -0.134876 -0)
(40.7345 -0.120265 -0)
(40.7337 -0.105793 -0)
(40.7329 -0.0914402 -0)
(40.7322 -0.0771961 -0)
(40.7317 -0.0630409 -0)
(40.7313 -0.0489557 -0)
(40.731 -0.0349268 -0)
(40.7307 -0.0209406 -0)
(40.7306 -0.00697842 -0)
(40.8635 -0.640118 -0)
(40.8575 -0.614687 -0)
(40.8518 -0.589967 -0)
(40.8459 -0.565942 -0)
(40.8402 -0.542586 -0)
(40.8347 -0.519869 -0)
(40.8296 -0.497757 -0)
(40.8247 -0.476218 -0)
(40.82 -0.455236 -0)
(40.8155 -0.434782 -0)
(40.8113 -0.414827 -0)
(40.8073 -0.395356 -0)
(40.8034 -0.376342 -0)
(40.7998 -0.357761 -0)
(40.7963 -0.339594 -0)
(40.7931 -0.321827 -0)
(40.7899 -0.304434 -0)
(40.787 -0.287396 -0)
(40.7842 -0.270698 -0)
(40.7816 -0.254318 -0)
(40.7791 -0.238235 -0)
(40.7767 -0.222436 -0)
(40.7746 -0.206898 -0)
(40.7725 -0.1916 -0)
(40.7706 -0.176527 -0)
(40.7689 -0.161662 -0)
(40.7673 -0.146987 -0)
(40.7659 -0.132479 -0)
(40.7646 -0.118128 -0)
(40.7635 -0.103913 -0)
(40.7625 -0.0898164 -0)
(40.7616 -0.0758255 -0)
(40.7609 -0.0619218 -0)
(40.7604 -0.0480867 -0)
(40.7599 -0.0343069 -0)
(40.7597 -0.0205689 -0)
(40.7595 -0.00685456 -0)
(40.9139 -0.626328 -0)
(40.9065 -0.601434 -0)
(40.8994 -0.577239 -0)
(40.8922 -0.553723 -0)
(40.8852 -0.530865 -0)
(40.8785 -0.508633 -0)
(40.8722 -0.486992 -0)
(40.8662 -0.465912 -0)
(40.8605 -0.445378 -0)
(40.855 -0.425359 -0)
(40.8498 -0.40583 -0)
(40.8449 -0.386774 -0)
(40.8402 -0.368166 -0)
(40.8357 -0.349982 -0)
(40.8314 -0.332205 -0)
(40.8274 -0.314819 -0)
(40.8236 -0.297802 -0)
(40.8199 -0.281133 -0)
(40.8165 -0.264797 -0)
(40.8133 -0.248775 -0)
(40.8102 -0.233043 -0)
(40.8073 -0.217588 -0)
(40.8047 -0.20239 -0)
(40.8022 -0.187426 -0)
(40.7999 -0.172682 -0)
(40.7978 -0.158143 -0)
(40.7958 -0.143787 -0)
(40.7941 -0.129596 -0)
(40.7925 -0.115557 -0)
(40.7911 -0.101653 -0)
(40.7899 -0.0878623 -0)
(40.7889 -0.0741758 -0)
(40.788 -0.0605746 -0)
(40.7873 -0.0470405 -0)
(40.7868 -0.0335604 -0)
(40.7865 -0.0201214 -0)
(40.7863 -0.0067054 -0)
(40.9605 -0.610664 -0)
(40.9518 -0.586385 -0)
(40.9434 -0.562787 -0)
(40.9349 -0.539853 -0)
(40.9268 -0.517562 -0)
(40.919 -0.495882 -0)
(40.9116 -0.474778 -0)
(40.9046 -0.454221 -0)
(40.8979 -0.434195 -0)
(40.8915 -0.414673 -0)
(40.8854 -0.395628 -0)
(40.8796 -0.377044 -0)
(40.8741 -0.358898 -0)
(40.8688 -0.341165 -0)
(40.8639 -0.323831 -0)
(40.8591 -0.306879 -0)
(40.8546 -0.290289 -0)
(40.8504 -0.274038 -0)
(40.8463 -0.258114 -0)
(40.8425 -0.242496 -0)
(40.839 -0.227162 -0)
(40.8356 -0.212098 -0)
(40.8325 -0.197284 -0)
(40.8296 -0.182699 -0)
(40.8269 -0.168327 -0)
(40.8244 -0.154155 -0)
(40.8221 -0.140162 -0)
(40.8201 -0.126328 -0)
(40.8183 -0.112644 -0)
(40.8166 -0.0990895 -0)
(40.8152 -0.0856468 -0)
(40.814 -0.0723053 -0)
(40.813 -0.0590469 -0)
(40.8122 -0.0458539 -0)
(40.8116 -0.0327138 -0)
(40.8112 -0.0196137 -0)
(40.811 -0.0065362 -0)
(41.0034 -0.59356 -0)
(40.9935 -0.569955 -0)
(40.9839 -0.547011 -0)
(40.9743 -0.524715 -0)
(40.9651 -0.503044 -0)
(40.9563 -0.481968 -0)
(40.9479 -0.461451 -0)
(40.9399 -0.441466 -0)
(40.9323 -0.421997 -0)
(40.9251 -0.403017 -0)
(40.9182 -0.384501 -0)
(40.9116 -0.366433 -0)
(40.9053 -0.348791 -0)
(40.8994 -0.331552 -0)
(40.8937 -0.314702 -0)
(40.8883 -0.298225 -0)
(40.8832 -0.2821 -0)
(40.8784 -0.266307 -0)
(40.8738 -0.250832 -0)
(40.8695 -0.235655 -0)
(40.8654 -0.220753 -0)
(40.8616 -0.206115 -0)
(40.8581 -0.19172 -0)
(40.8548 -0.177546 -0)
(40.8517 -0.163581 -0)
(40.8489 -0.149808 -0)
(40.8464 -0.136209 -0)
(40.8441 -0.122766 -0)
(40.842 -0.109467 -0)
(40.8402 -0.0962942 -0)
(40.8386 -0.0832303 -0)
(40.8372 -0.0702647 -0)
(40.8361 -0.0573802 -0)
(40.8352 -0.0445594 -0)
(40.8345 -0.03179 -0)
(40.834 -0.0190598 -0)
(40.8338 -0.0063516 -0)
(41.0428 -0.575391 -0)
(41.0318 -0.552503 -0)
(41.0211 -0.530256 -0)
(41.0105 -0.508639 -0)
(41.0002 -0.487629 -0)
(40.9905 -0.467194 -0)
(40.9812 -0.447302 -0)
(40.9724 -0.427925 -0)
(40.964 -0.409048 -0)
(40.9559 -0.390644 -0)
(40.9483 -0.37269 -0)
(40.941 -0.355172 -0)
(40.934 -0.338066 -0)
(40.9274 -0.321352 -0)
(40.9211 -0.305016 -0)
(40.9152 -0.289044 -0)
(40.9095 -0.273414 -0)
(40.9041 -0.258106 -0)
(40.899 -0.243108 -0)
(40.8942 -0.228398 -0)
(40.8897 -0.213957 -0)
(40.8855 -0.19977 -0)
(40.8816 -0.185818 -0)
(40.8779 -0.172081 -0)
(40.8745 -0.158545 -0)
(40.8714 -0.145196 -0)
(40.8686 -0.132015 -0)
(40.8661 -0.118985 -0)
(40.8638 -0.106095 -0)
(40.8617 -0.0933273 -0)
(40.86 -0.0806652 -0)
(40.8585 -0.0680986 -0)
(40.8572 -0.0556108 -0)
(40.8562 -0.043185 -0)
(40.8554 -0.0308093 -0)
(40.8549 -0.0184717 -0)
(40.8547 -0.0061556 -0)
(41.079 -0.556479 -0)
(41.0669 -0.534339 -0)
(41.0552 -0.51282 -0)
(41.0436 -0.491909 -0)
(41.0324 -0.471588 -0)
(41.0218 -0.451823 -0)
(41.0117 -0.432581 -0)
(41.0021 -0.413837 -0)
(40.9929 -0.395576 -0)
(40.9842 -0.377774 -0)
(40.9758 -0.360406 -0)
(40.9679 -0.343459 -0)
(40.9603 -0.326912 -0)
(40.9531 -0.310745 -0)
(40.9462 -0.294945 -0)
(40.9397 -0.279498 -0)
(40.9335 -0.264383 -0)
(40.9277 -0.249581 -0)
(40.9221 -0.235078 -0)
(40.9169 -0.220855 -0)
(40.912 -0.206891 -0)
(40.9074 -0.193173 -0)
(40.9031 -0.179682 -0)
(40.8991 -0.166398 -0)
(40.8954 -0.153309 -0)
(40.8921 -0.1404 -0)
(40.889 -0.127654 -0)
(40.8862 -0.115053 -0)
(40.8837 -0.102588 -0)
(40.8815 -0.0902411 -0)
(40.8796 -0.0779968 -0)
(40.8779 -0.0658452 -0)
(40.8766 -0.05377 -0)
(40.8755 -0.0417552 -0)
(40.8747 -0.0297891 -0)
(40.8741 -0.0178599 -0)
(40.8738 -0.0059517 -0)
(41.112 -0.537099 -0)
(41.099 -0.515726 -0)
(41.0864 -0.494953 -0)
(41.0739 -0.474768 -0)
(41.0619 -0.455153 -0)
(41.0505 -0.436075 -0)
(41.0396 -0.4175 -0)
(41.0293 -0.399405 -0)
(41.0194 -0.381776 -0)
(41.01 -0.36459 -0)
(41.001 -0.347822 -0)
(40.9925 -0.331462 -0)
(40.9843 -0.315488 -0)
(40.9766 -0.299883 -0)
(40.9692 -0.284632 -0)
(40.9622 -0.269724 -0)
(40.9555 -0.255137 -0)
(40.9492 -0.240852 -0)
(40.9432 -0.226858 -0)
(40.9376 -0.213132 -0)
(40.9323 -0.199657 -0)
(40.9274 -0.186419 -0)
(40.9228 -0.173399 -0)
(40.9185 -0.160579 -0)
(40.9145 -0.147947 -0)
(40.9109 -0.135488 -0)
(40.9076 -0.123187 -0)
(40.9046 -0.111026 -0)
(40.9019 -0.0989954 -0)
(40.8996 -0.08708 -0)
(40.8975 -0.0752636 -0)
(40.8957 -0.0635371 -0)
(40.8943 -0.0518846 -0)
(40.8931 -0.0402907 -0)
(40.8922 -0.0287441 -0)
(40.8916 -0.0172333 -0)
(40.8913 -0.00574286 -0)
(41.1421 -0.517478 -0)
(41.1282 -0.496884 -0)
(41.1148 -0.476867 -0)
(41.1015 -0.457416 -0)
(41.0887 -0.438516 -0)
(41.0766 -0.420133 -0)
(41.0651 -0.402234 -0)
(41.0541 -0.384796 -0)
(41.0436 -0.367808 -0)
(41.0336 -0.351245 -0)
(41.024 -0.335087 -0)
(41.0149 -0.31932 -0)
(41.0063 -0.303928 -0)
(40.998 -0.288891 -0)
(40.9901 -0.274198 -0)
(40.9826 -0.259835 -0)
(40.9755 -0.245783 -0)
(40.9688 -0.232022 -0)
(40.9624 -0.218541 -0)
(40.9565 -0.20532 -0)
(40.9508 -0.192338 -0)
(40.9456 -0.179585 -0)
(40.9407 -0.167042 -0)
(40.9361 -0.154692 -0)
(40.9319 -0.142521 -0)
(40.9281 -0.130518 -0)
(40.9246 -0.118666 -0)
(40.9214 -0.10695 -0)
(40.9186 -0.09536 -0)
(40.916 -0.083881 -0)
(40.9138 -0.0724977 -0)
(40.912 -0.0612014 -0)
(40.9104 -0.0499767 -0)
(40.9091 -0.0388088 -0)
(40.9082 -0.0276867 -0)
(40.9076 -0.0165993 -0)
(40.9073 -0.00553155 -0)
(41.1695 -0.497809 -0)
(41.1549 -0.477994 -0)
(41.1407 -0.458735 -0)
(41.1267 -0.440021 -0)
(41.1132 -0.421838 -0)
(41.1004 -0.404151 -0)
(41.0883 -0.38693 -0)
(41.0767 -0.370152 -0)
(41.0656 -0.353806 -0)
(41.0551 -0.337869 -0)
(41.045 -0.322321 -0)
(41.0354 -0.307151 -0)
(41.0262 -0.292342 -0)
(41.0175 -0.277877 -0)
(41.0092 -0.263742 -0)
(41.0013 -0.249927 -0)
(40.9938 -0.236411 -0)
(40.9867 -0.223175 -0)
(40.98 -0.210209 -0)
(40.9736 -0.197491 -0)
(40.9677 -0.185005 -0)
(40.9622 -0.172737 -0)
(40.957 -0.160672 -0)
(40.9522 -0.148791 -0)
(40.9478 -0.137084 -0)
(40.9438 -0.125537 -0)
(40.94 -0.114136 -0)
(40.9367 -0.102865 -0)
(40.9337 -0.0917168 -0)
(40.931 -0.0806752 -0)
(40.9287 -0.0697261 -0)
(40.9267 -0.0588609 -0)
(40.9251 -0.048065 -0)
(40.9238 -0.037324 -0)
(40.9228 -0.0266272 -0)
(40.9221 -0.015964 -0)
(40.9218 -0.00531984 -0)
(41.1945 -0.478253 -0)
(41.1791 -0.459213 -0)
(41.1643 -0.440707 -0)
(41.1496 -0.422725 -0)
(41.1355 -0.405254 -0)
(41.1221 -0.38826 -0)
(41.1094 -0.371712 -0)
(41.0972 -0.35559 -0)
(41.0856 -0.339882 -0)
(41.0746 -0.324569 -0)
(41.064 -0.309629 -0)
(41.054 -0.295054 -0)
(41.0444 -0.280825 -0)
(41.0352 -0.266928 -0)
(41.0265 -0.25335 -0)
(41.0182 -0.240079 -0)
(41.0104 -0.227096 -0)
(41.0029 -0.214382 -0)
(40.9959 -0.201927 -0)
(40.9893 -0.189711 -0)
(40.9831 -0.177715 -0)
(40.9773 -0.165931 -0)
(40.9719 -0.15434 -0)
(40.9669 -0.142926 -0)
(40.9622 -0.131678 -0)
(40.958 -0.120586 -0)
(40.9541 -0.109633 -0)
(40.9506 -0.0988056 -0)
(40.9475 -0.0880957 -0)
(40.9447 -0.077489 -0)
(40.9422 -0.0669715 -0)
(40.9402 -0.056535 -0)
(40.9384 -0.0461653 -0)
(40.9371 -0.0358486 -0)
(40.936 -0.0255745 -0)
(40.9353 -0.0153329 -0)
(40.935 -0.0051095 -0)
(41.2171 -0.458939 -0)
(41.2011 -0.440663 -0)
(41.1857 -0.422901 -0)
(41.1704 -0.40564 -0)
(41.1557 -0.388871 -0)
(41.1418 -0.37256 -0)
(41.1285 -0.356678 -0)
(41.1159 -0.341204 -0)
(41.1038 -0.326128 -0)
(41.0923 -0.31143 -0)
(41.0814 -0.297092 -0)
(41.0709 -0.283104 -0)
(41.0609 -0.269451 -0)
(41.0513 -0.256116 -0)
(41.0423 -0.243088 -0)
(41.0336 -0.230355 -0)
(41.0254 -0.217898 -0)
(41.0177 -0.2057 -0)
(41.0104 -0.193749 -0)
(41.0035 -0.182027 -0)
(40.997 -0.170517 -0)
(40.991 -0.159209 -0)
(40.9854 -0.148086 -0)
(40.9801 -0.137134 -0)
(40.9753 -0.12634 -0)
(40.9709 -0.115696 -0)
(40.9669 -0.105186 -0)
(40.9632 -0.0947963 -0)
(40.96 -0.08452 -0)
(40.9571 -0.074343 -0)
(40.9545 -0.0642519 -0)
(40.9524 -0.0542387 -0)
(40.9506 -0.04429 -0)
(40.9491 -0.0343922 -0)
(40.948 -0.0245355 -0)
(40.9473 -0.0147099 -0)
(40.947 -0.00490189 -0)
(41.2377 -0.439972 -0)
(41.2211 -0.422445 -0)
(41.2051 -0.405412 -0)
(41.1892 -0.38886 -0)
(41.174 -0.372778 -0)
(41.1596 -0.357136 -0)
(41.1459 -0.341907 -0)
(41.1328 -0.327069 -0)
(41.1204 -0.312614 -0)
(41.1084 -0.298522 -0)
(41.0971 -0.284776 -0)
(41.0862 -0.271367 -0)
(41.0758 -0.258279 -0)
(41.066 -0.245498 -0)
(41.0565 -0.233011 -0)
(41.0476 -0.220806 -0)
(41.0391 -0.208866 -0)
(41.0311 -0.197174 -0)
(41.0235 -0.185718 -0)
(41.0164 -0.174481 -0)
(41.0097 -0.163448 -0)
(41.0034 -0.152607 -0)
(40.9976 -0.141944 -0)
(40.9922 -0.131444 -0)
(40.9872 -0.121097 -0)
(40.9826 -0.110893 -0)
(40.9785 -0.100818 -0)
(40.9747 -0.0908593 -0)
(40.9713 -0.081009 -0)
(40.9683 -0.0712542 -0)
(40.9657 -0.0615819 -0)
(40.9634 -0.0519846 -0)
(40.9616 -0.0424491 -0)
(40.9601 -0.0329626 -0)
(40.959 -0.0235156 -0)
(40.9582 -0.0140984 -0)
(40.9578 -0.00469813 -0)
(41.2564 -0.421433 -0)
(41.2392 -0.404637 -0)
(41.2227 -0.388316 -0)
(41.2063 -0.372456 -0)
(41.1907 -0.357044 -0)
(41.1758 -0.342055 -0)
(41.1617 -0.327463 -0)
(41.1482 -0.313247 -0)
(41.1353 -0.299399 -0)
(41.123 -0.285901 -0)
(41.1113 -0.272734 -0)
(41.1001 -0.259892 -0)
(41.0894 -0.247358 -0)
(41.0792 -0.235118 -0)
(41.0695 -0.22316 -0)
(41.0603 -0.211472 -0)
(41.0515 -0.200038 -0)
(41.0432 -0.18884 -0)
(41.0354 -0.177868 -0)
(41.028 -0.167105 -0)
(41.0211 -0.156537 -0)
(41.0147 -0.146153 -0)
(41.0087 -0.13594 -0)
(41.0031 -0.125883 -0)
(40.998 -0.115972 -0)
(40.9933 -0.106199 -0)
(40.989 -0.0965493 -0)
(40.9851 -0.0870115 -0)
(40.9816 -0.0775778 -0)
(40.9785 -0.0682358 -0)
(40.9758 -0.058973 -0)
(40.9735 -0.0497821 -0)
(40.9715 -0.0406507 -0)
(40.97 -0.0315661 -0)
(40.9688 -0.0225193 -0)
(40.9681 -0.0135011 -0)
(40.9677 -0.00449909 -0)
(41.2733 -0.403384 -0)
(41.2557 -0.387299 -0)
(41.2387 -0.371672 -0)
(41.2219 -0.356485 -0)
(41.2057 -0.341724 -0)
(41.1905 -0.327369 -0)
(41.176 -0.313396 -0)
(41.1621 -0.299787 -0)
(41.1489 -0.28653 -0)
(41.1363 -0.27361 -0)
(41.1242 -0.261009 -0)
(41.1127 -0.24872 -0)
(41.1017 -0.236727 -0)
(41.0912 -0.225015 -0)
(41.0812 -0.213572 -0)
(41.0717 -0.202387 -0)
(41.0627 -0.191444 -0)
(41.0542 -0.180727 -0)
(41.0462 -0.170226 -0)
(41.0386 -0.159924 -0)
(41.0315 -0.149809 -0)
(41.0249 -0.13987 -0)
(41.0187 -0.130094 -0)
(41.013 -0.120468 -0)
(41.0078 -0.110983 -0)
(41.0029 -0.101629 -0)
(40.9985 -0.0923942 -0)
(40.9945 -0.0832663 -0)
(40.9909 -0.0742384 -0)
(40.9877 -0.0652984 -0)
(40.9849 -0.0564344 -0)
(40.9825 -0.0476392 -0)
(40.9806 -0.0389008 -0)
(40.979 -0.0302073 -0)
(40.9778 -0.02155 -0)
(40.977 -0.01292 -0)
(40.9766 -0.00430546 -0)
(41.2889 -0.385474 -0)
(41.2709 -0.370093 -0)
(41.2534 -0.355154 -0)
(41.2362 -0.340636 -0)
(41.2197 -0.326522 -0)
(41.204 -0.312797 -0)
(41.1892 -0.29944 -0)
(41.175 -0.286432 -0)
(41.1614 -0.273763 -0)
(41.1485 -0.261417 -0)
(41.1361 -0.249378 -0)
(41.1243 -0.237638 -0)
(41.113 -0.226181 -0)
(41.1023 -0.214992 -0)
(41.0921 -0.204061 -0)
(41.0823 -0.193375 -0)
(41.0731 -0.182919 -0)
(41.0644 -0.172679 -0)
(41.0561 -0.162644 -0)
(41.0484 -0.1528 -0)
(41.0411 -0.143134 -0)
(41.0344 -0.133636 -0)
(41.028 -0.124295 -0)
(41.0222 -0.115097 -0)
(41.0168 -0.106034 -0)
(41.0118 -0.0970962 -0)
(41.0073 -0.0882729 -0)
(41.0032 -0.079552 -0)
(40.9995 -0.0709268 -0)
(40.9962 -0.0623856 -0)
(40.9934 -0.0539171 -0)
(40.9909 -0.0455143 -0)
(40.9889 -0.0371658 -0)
(40.9873 -0.0288601 -0)
(40.9861 -0.0205889 -0)
(40.9853 -0.0123439 -0)
(40.9849 -0.00411347 -0)
(41.3038 -0.36723 -0)
(41.2853 -0.352568 -0)
(41.2674 -0.338329 -0)
(41.2498 -0.324492 -0)
(41.2329 -0.31104 -0)
(41.2169 -0.297959 -0)
(41.2017 -0.28523 -0)
(41.1872 -0.272836 -0)
(41.1733 -0.260767 -0)
(41.1601 -0.249006 -0)
(41.1474 -0.237539 -0)
(41.1353 -0.226357 -0)
(41.1238 -0.215445 -0)
(41.1128 -0.204788 -0)
(41.1023 -0.194377 -0)
(41.0924 -0.184198 -0)
(41.0829 -0.174238 -0)
(41.074 -0.164483 -0)
(41.0656 -0.154923 -0)
(41.0577 -0.145546 -0)
(41.0502 -0.136337 -0)
(41.0433 -0.127289 -0)
(41.0369 -0.11839 -0)
(41.0309 -0.109628 -0)
(41.0253 -0.100995 -0)
(41.0203 -0.092482 -0)
(41.0156 -0.0840778 -0)
(41.0114 -0.0757713 -0)
(41.0077 -0.067556 -0)
(41.0043 -0.0594209 -0)
(41.0014 -0.051355 -0)
(40.9989 -0.0433517 -0)
(40.9968 -0.0354 -0)
(40.9952 -0.027489 -0)
(40.9939 -0.0196108 -0)
(40.9931 -0.0117575 -0)
(40.9927 -0.00391808 -0)
(41.3179 -0.348563 -0)
(41.299 -0.334638 -0)
(41.2808 -0.321117 -0)
(41.2628 -0.307978 -0)
(41.2455 -0.295205 -0)
(41.2292 -0.282785 -0)
(41.2136 -0.270701 -0)
(41.1988 -0.258935 -0)
(41.1846 -0.247479 -0)
(41.1711 -0.236317 -0)
(41.1582 -0.225435 -0)
(41.1458 -0.214823 -0)
(41.134 -0.204468 -0)
(41.1228 -0.194355 -0)
(41.1121 -0.184474 -0)
(41.1019 -0.174814 -0)
(41.0923 -0.165361 -0)
(41.0832 -0.156101 -0)
(41.0746 -0.147028 -0)
(41.0665 -0.138127 -0)
(41.0589 -0.129386 -0)
(41.0518 -0.120799 -0)
(41.0452 -0.112353 -0)
(41.0391 -0.104037 -0)
(41.0335 -0.0958437 -0)
(41.0283 -0.0877646 -0)
(41.0235 -0.079789 -0)
(41.0193 -0.0719063 -0)
(41.0154 -0.0641103 -0)
(41.012 -0.0563903 -0)
(41.009 -0.0487359 -0)
(41.0065 -0.0411409 -0)
(41.0044 -0.0335949 -0)
(41.0027 -0.0260874 -0)
(41.0014 -0.018611 -0)
(41.0006 -0.011158 -0)
(41.0001 -0.00371833 -0)
(41.3313 -0.329494 -0)
(41.312 -0.316325 -0)
(41.2934 -0.303539 -0)
(41.275 -0.291114 -0)
(41.2574 -0.279036 -0)
(41.2408 -0.267293 -0)
(41.2249 -0.255868 -0)
(41.2098 -0.244745 -0)
(41.1953 -0.233915 -0)
(41.1815 -0.223365 -0)
(41.1683 -0.213079 -0)
(41.1558 -0.203049 -0)
(41.1437 -0.193262 -0)
(41.1323 -0.183703 -0)
(41.1214 -0.174363 -0)
(41.111 -0.165232 -0)
(41.1011 -0.156296 -0)
(41.0918 -0.147544 -0)
(41.0831 -0.138966 -0)
(41.0748 -0.130552 -0)
(41.0671 -0.12229 -0)
(41.0599 -0.114173 -0)
(41.0532 -0.106189 -0)
(41.0469 -0.0983295 -0)
(41.0412 -0.0905854 -0)
(41.0359 -0.0829495 -0)
(41.0311 -0.0754115 -0)
(41.0267 -0.0679614 -0)
(41.0228 -0.0605933 -0)
(41.0193 -0.053297 -0)
(41.0163 -0.0460627 -0)
(41.0137 -0.0388845 -0)
(41.0115 -0.0317524 -0)
(41.0098 -0.0246568 -0)
(41.0085 -0.0175904 -0)
(41.0076 -0.0105462 -0)
(41.0072 -0.00351444 -0)
(41.3439 -0.310046 -0)
(41.3243 -0.29765 -0)