/*--------------------------------*- C++ -*----------------------------------*\
| =========                 |                                                 |
| \\      /  F ield         | OpenFOAM: The Open Source CFD Toolbox           |
|  \\    /   O peration     | Version:  2406                                  |
|   \\  /    A nd           | Website:  www.openfoam.com                      |
|    \\/     M anipulation  |                                                 |
\*---------------------------------------------------------------------------*/
FoamFile
{
    version     2.0;
    format      ascii;
    arch        "LSB;label=32;scalar=64";
    class       volVectorField;
    location    "2e-07/dielectric";
    object      EInd;
}
// * * * * * * * * * * * * * * * * * * * * * * * * * * * * * * * * * * * * * //

dimensions      [1 1 -3 0 0 -1 0];

internalField   uniform (-0 -0 -0);

boundaryField
{
    ground
    {
        type            extrapolatedCalculated;
        value           uniform (-0 -0 -0);
    }
    topBotBoundaries
    {
        type            extrapolatedCalculated;
        value           uniform (-0 -0 -0);
    }
    frontBack
    {
        type            empty;
    }
    dielectric_to_region0
    {
        type            extrapolatedCalculated;
        value           uniform (-0 -0 -0);
    }
}


// ************************************************************************* //
