/*--------------------------------*- C++ -*----------------------------------*\
| =========                 |                                                 |
| \\      /  F ield         | OpenFOAM: The Open Source CFD Toolbox           |
|  \\    /   O peration     | Version:  2406                                  |
|   \\  /    A nd           | Website:  www.openfoam.com                      |
|    \\/     M anipulation  |                                                 |
\*---------------------------------------------------------------------------*/
FoamFile
{
    version     2.0;
    format      ascii;
    arch        "LSB;label=32;scalar=64";
    class       volScalarField;
    location    "2e-07/dielectric";
    object      voltExtAmp;
}
// * * * * * * * * * * * * * * * * * * * * * * * * * * * * * * * * * * * * * //

dimensions      [1 2 -3 0 0 -1 0];

internalField   nonuniform List<scalar> 
3626
(
0.0395631
0.0384857
0.0374076
0.0363289
0.0352495
0.0341699
0.0330898
0.032009
0.030928
0.0298465
0.0287644
0.0276821
0.0265995
0.0255163
0.0244328
0.0233491
0.0222651
0.0211807
0.0200962
0.0190114
0.0179262
0.0168409
0.0157555
0.0146696
0.0135836
0.0124976
0.0114114
0.0103249
0.00923849
0.00815195
0.00706512
0.0059784
0.00489161
0.00380455
0.00271746
0.00163053
0.000543578
0.0395774
0.0384994
0.0374208
0.0363415
0.0352617
0.0341815
0.0331009
0.0320197
0.0309382
0.0298562
0.0287737
0.027691
0.026608
0.0255243
0.0244404
0.0233564
0.022272
0.0211872
0.0201023
0.0190171
0.0179315
0.0168459
0.0157601
0.0146739
0.0135876
0.0125012
0.0114147
0.0103279
0.00924116
0.00815431
0.00706715
0.00598012
0.00489301
0.00380564
0.00271823
0.00163099
0.000543734
0.0396033
0.0385243
0.0374447
0.0363644
0.0352836
0.0342026
0.0331211
0.032039
0.0309566
0.0298739
0.0287905
0.027707
0.0266232
0.0255388
0.0244542
0.0233694
0.0222844
0.0211988
0.0201133
0.0190275
0.0179412
0.016855
0.0157685
0.0146817
0.0135947
0.0125078
0.0114207
0.0103333
0.00924597
0.00815853
0.00707081
0.0059832
0.00489553
0.0038076
0.00271963
0.00163183
0.000544013
0.0396384
0.038558
0.0374771
0.0363955
0.0353135
0.0342312
0.0331485
0.0320652
0.0309817
0.0298978
0.0288134
0.0277288
0.026644
0.0255586
0.0244729
0.0233872
0.0223012
0.0212147
0.0201282
0.0190415
0.0179544
0.0168673
0.01578
0.0146923
0.0136045
0.0125167
0.0114288
0.0103406
0.0092525
0.00816428
0.00707577
0.00598739
0.00489895
0.00381026
0.00272153
0.00163297
0.000544391
0.0396804
0.0385983
0.0375158
0.0364327
0.0353491
0.0342653
0.0331812
0.0320965
0.0310116
0.0299264
0.0288407
0.0277548
0.0266687
0.0255821
0.0244953
0.0234083
0.0223212
0.0212336
0.020146
0.0190583
0.0179701
0.0168819
0.0157936
0.014705
0.0136161
0.0125274
0.0114385
0.0103494
0.00926029
0.00817114
0.0070817
0.0059924
0.00490304
0.00381343
0.00272379
0.00163433
0.000544844
0.0397273
0.0386434
0.0375591
0.0364742
0.0353889
0.0343035
0.0332177
0.0321314
0.031045
0.0299583
0.0288712
0.0277839
0.0266964
0.0256084
0.0245203
0.023432
0.0223436
0.0212548
0.020166
0.019077
0.0179876
0.0168983
0.0158089
0.0147191
0.0136292
0.0125393
0.0114494
0.0103591
0.009269
0.00817879
0.00708832
0.00599798
0.0049076
0.00381698
0.00272632
0.00163584
0.000545349
0.0397774
0.0386915
0.0376053
0.0365185
0.0354314
0.0343442
0.0332567
0.0321687
0.0310807
0.0299924
0.0289037
0.0278149
0.0267259
0.0256365
0.0245469
0.0234573
0.0223675
0.0212774
0.0201872
0.019097
0.0180063
0.0169158
0.0158251
0.0147341
0.013643
0.012552
0.0114609
0.0103695
0.00927828
0.00818696
0.00709538
0.00600394
0.00491247
0.00382075
0.00272901
0.00163746
0.000545888
0.0398291
0.0387412
0.037653
0.0365643
0.0354753
0.0343863
0.033297
0.0322073
0.0311176
0.0300277
0.0289373
0.027847
0.0267564
0.0256655
0.0245744
0.0234834
0.0223922
0.0213007
0.0202092
0.0191176
0.0180257
0.0169339
0.0158419
0.0147497
0.0136574
0.0125651
0.0114729
0.0103803
0.00928787
0.0081954
0.00710267
0.0060101
0.00491749
0.00382466
0.0027318
0.00163913
0.000546444
0.0398814
0.0387914
0.0377012
0.0366105
0.0355197
0.0344288
0.0333377
0.0322463
0.0311548
0.0300632
0.0289712
0.0278793
0.0267872
0.0256948
0.0246023
0.0235098
0.0224172
0.0213242
0.0202314
0.0191385
0.0180452
0.0169521
0.0158589
0.0147654
0.0136718
0.0125784
0.0114849
0.0103912
0.00929756
0.00820391
0.00711003
0.00601631
0.00492257
0.0038286
0.00273461
0.00164081
0.000547006
0.0399333
0.0388412
0.037749
0.0366564
0.0355637
0.0344709
0.0333781
0.0322849
0.0311918
0.0300985
0.0290049
0.0279114
0.0268178
0.0257239
0.0246298
0.0235359
0.0224419
0.0213476
0.0202534
0.0191591
0.0180646
0.0169702
0.0158757
0.014781
0.0136862
0.0125915
0.0114968
0.0104019
0.00930715
0.00821235
0.00711732
0.00602247
0.0049276
0.0038325
0.0027374
0.00164248
0.000547562
0.0399839
0.0388899
0.0377957
0.0367012
0.0356066
0.0345121
0.0334175
0.0323226
0.0312278
0.0301329
0.0290378
0.0279427
0.0268476
0.0257522
0.0246567
0.0235614
0.022466
0.0213704
0.0202749
0.0191793
0.0180835
0.0169878
0.0158921
0.0147962
0.0137002
0.0126044
0.0115085
0.0104124
0.00931652
0.00822059
0.00712445
0.00602848
0.00493251
0.00383632
0.00274012
0.00164411
0.000548106
0.0400329
0.0389369
0.0378408
0.0367445
0.0356481
0.0345519
0.0334556
0.032359
0.0312627
0.0301662
0.0290695
0.027973
0.0268764
0.0257796
0.0246827
0.0235861
0.0224893
0.0213924
0.0202956
0.0191988
0.0181017
0.0170048
0.0159079
0.0148108
0.0137137
0.0126167
0.0115198
0.0104226
0.00932556
0.00822855
0.00713132
0.00603429
0.00493725
0.00384
0.00274274
0.00164569
0.00054863
0.0400796
0.0389818
0.037884
0.0367859
0.0356878
0.0345899
0.033492
0.0323939
0.0312959
0.030198
0.0290999
0.0280019
0.0269039
0.0258058
0.0247076
0.0236096
0.0225116
0.0214134
0.0203154
0.0192174
0.0181191
0.0170211
0.0159231
0.0148248
0.0137266
0.0126286
0.0115305
0.0104323
0.00933421
0.00823615
0.00713789
0.00603984
0.00494178
0.00384352
0.00274525
0.00164719
0.000549132
0.040124
0.0390244
0.0379249
0.0368251
0.0357254
0.0346259
0.0335265
0.0324269
0.0313275
0.0302282
0.0291286
0.0280293
0.0269301
0.0258306
0.0247311
0.0236319
0.0225327
0.0214333
0.0203342
0.019235
0.0181357
0.0170366
0.0159374
0.0148381
0.0137389
0.0126398
0.0115407
0.0104415
0.0093424
0.00824336
0.00714412
0.0060451
0.00494607
0.00384685
0.00274763
0.00164862
0.000549607
0.0401658
0.0390645
0.0379634
0.0368621
0.0357608
0.0346599
0.033559
0.032458
0.0313572
0.0302566
0.0291557
0.0280551
0.0269546
0.025854
0.0247533
0.023653
0.0225526
0.0214521
0.0203519
0.0192516
0.0181512
0.0170511
0.015951
0.0148507
0.0137504
0.0126503
0.0115503
0.0104501
0.00935012
0.00825015
0.00714999
0.00605005
0.00495012
0.00384999
0.00274987
0.00164996
0.000550055
0.0402049
0.0391021
0.0379994
0.0368966
0.035794
0.0346917
0.0335894
0.0324871
0.0313851
0.0302831
0.0291811
0.0280793
0.0269776
0.0258758
0.0247741
0.0236726
0.0225712
0.0214697
0.0203684
0.0192672
0.0181658
0.0170647
0.0159636
0.0148624
0.0137612
0.0126602
0.0115593
0.0104582
0.00935734
0.0082565
0.00715548
0.00605468
0.0049539
0.00385293
0.00275197
0.00165122
0.000550474
0.0402414
0.0391371
0.038033
0.0369289
0.0358249
0.0347212
0.0336178
0.0325142
0.031411
0.0303079
0.0292047
0.0281018
0.0269991
0.0258962
0.0247934
0.0236909
0.0225886
0.021486
0.0203838
0.0192817
0.0181794
0.0170773
0.0159754
0.0148733
0.0137712
0.0126694
0.0115677
0.0104657
0.00936406
0.00826242
0.00716059
0.006059
0.00495743
0.00385567
0.00275392
0.00165239
0.000550864
0.0402751
0.0391695
0.0380641
0.0369587
0.0358535
0.0347487
0.033644
0.0325393
0.031435
0.0303308
0.0292266
0.0281227
0.0270189
0.0259151
0.0248113
0.0237079
0.0226046
0.0215012
0.0203981
0.0192951
0.0181919
0.0170891
0.0159863
0.0148834
0.0137805
0.012678
0.0115754
0.0104727
0.0093703
0.0082679
0.00716534
0.006063
0.0049607
0.00385821
0.00275573
0.00165348
0.000551226
0.0403064
0.0391995
0.0380929
0.0369863
0.03588
0.034774
0.0336683
0.0325626
0.0314572
0.030352
0.0292468
0.028142
0.0270373
0.0259325
0.0248279
0.0237236
0.0226195
0.0215152
0.0204113
0.0193075
0.0182036
0.0170999
0.0159964
0.0148927
0.0137891
0.0126858
0.0115826
0.0104792
0.00937606
0.00827297
0.00716971
0.0060667
0.00496372
0.00386055
0.00275741
0.00165448
0.00055156
0.0403351
0.0392271
0.0381194
0.0370117
0.0359043
0.0347974
0.0336906
0.0325839
0.0314776
0.0303715
0.0292654
0.0281597
0.0270542
0.0259486
0.0248431
0.0237381
0.0226331
0.0215281
0.0204235
0.0193189
0.0182143
0.0171099
0.0160057
0.0149013
0.0137971
0.0126931
0.0115892
0.0104851
0.00938136
0.00827763
0.00717375
0.0060701
0.0049665
0.00386271
0.00275895
0.0016554
0.000551868
0.0403615
0.0392525
0.0381437
0.0370351
0.0359267
0.0348188
0.0337112
0.0326036
0.0314964
0.0303895
0.0292825
0.028176
0.0270697
0.0259633
0.0248571
0.0237513
0.0226457
0.02154
0.0204346
0.0193294
0.0182241
0.0171191
0.0160142
0.0149092
0.0138043
0.0126998
0.0115952
0.0104906
0.00938623
0.00828191
0.00717745
0.00607323
0.00496905
0.00386469
0.00276036
0.00165625
0.00055215
0.0403857
0.0392757
0.038166
0.0370564
0.0359472
0.0348384
0.03373
0.0326215
0.0315136
0.0304059
0.0292982
0.0281909
0.0270839
0.0259768
0.02487
0.0237635
0.0226572
0.0215508
0.0204448
0.019339
0.0182331
0.0171275
0.016022
0.0149165
0.013811
0.0127059
0.0116008
0.0104956
0.00939068
0.00828583
0.00718084
0.00607609
0.00497138
0.00386651
0.00276165
0.00165703
0.000552409
0.0404078
0.0392969
0.0381864
0.037076
0.0359659
0.0348564
0.0337471
0.032638
0.0315293
0.0304209
0.0293125
0.0282046
0.0270969
0.0259892
0.0248817
0.0237746
0.0226677
0.0215607
0.0204541
0.0193477
0.0182413
0.0171351
0.0160291
0.0149231
0.0138171
0.0127114
0.0116059
0.0105002
0.00939476
0.00828942
0.00718393
0.0060787
0.00497352
0.00386816
0.00276284
0.00165774
0.000552645
0.0404279
0.0393162
0.0382049
0.0370938
0.035983
0.0348727
0.0337628
0.032653
0.0315436
0.0304346
0.0293255
0.028217
0.0271087
0.0260004
0.0248923
0.0237847
0.0226772
0.0215698
0.0204627
0.0193557
0.0182488
0.0171421
0.0160356
0.0149291
0.0138226
0.0127165
0.0116105
0.0105043
0.00939847
0.00829268
0.00718675
0.00608109
0.00497546
0.00386967
0.00276392
0.00165838
0.000552861
0.0404463
0.0393339
0.0382219
0.03711
0.0359985
0.0348876
0.0337771
0.0326666
0.0315567
0.030447
0.0293374
0.0282283
0.0271195
0.0260107
0.0249021
0.0237939
0.0226859
0.021578
0.0204704
0.019363
0.0182556
0.0171485
0.0160416
0.0149346
0.0138277
0.0127211
0.0116147
0.0105081
0.00940185
0.00829566
0.00718933
0.00608326
0.00497724
0.00387105
0.0027649
0.00165897
0.000553057
0.040463
0.0393499
0.0382372
0.0371248
0.0360127
0.0349012
0.03379
0.032679
0.0315685
0.0304583
0.0293482
0.0282386
0.0271293
0.02602
0.0249109
0.0238023
0.0226939
0.0215855
0.0204775
0.0193696
0.0182618
0.0171543
0.016047
0.0149396
0.0138323
0.0127253
0.0116185
0.0105116
0.00940493
0.00829836
0.00719166
0.00608523
0.00497885
0.0038723
0.00276579
0.00165951
0.000553235
0.0404781
0.0393645
0.0382512
0.0371382
0.0360255
0.0349135
0.0338018
0.0326903
0.0315793
0.0304686
0.0293581
0.028248
0.0271382
0.0260284
0.0249189
0.0238099
0.0227011
0.0215923
0.0204839
0.0193756
0.0182674
0.0171596
0.0160519
0.0149441
0.0138365
0.0127292
0.011622
0.0105147
0.00940772
0.00830082
0.00719379
0.00608702
0.00498031
0.00387344
0.0027666
0.00165999
0.000553397
0.0404919
0.0393777
0.0382639
0.0371503
0.0360372
0.0349247
0.0338125
0.0327005
0.0315891
0.030478
0.029367
0.0282565
0.0271462
0.0260361
0.0249262
0.0238168
0.0227076
0.0215984
0.0204897
0.0193811
0.0182725
0.0171643
0.0160563
0.0149482
0.0138403
0.0127326
0.0116251
0.0105175
0.00941025
0.00830305
0.00719571
0.00608865
0.00498164
0.00387447
0.00276734
0.00166043
0.000553544
0.0405043
0.0393896
0.0382754
0.0371613
0.0360477
0.0349348
0.0338222
0.0327098
0.0315979
0.0304864
0.029375
0.0282641
0.0271536
0.0260431
0.0249328
0.023823
0.0227135
0.021604
0.0204949
0.019386
0.0182772
0.0171686
0.0160603
0.0149519
0.0138437
0.0127358
0.011628
0.0105201
0.00941255
0.00830507
0.00719746
0.00609012
0.00498284
0.0038754
0.002768
0.00166083
0.000553677
0.0405156
0.0394005
0.0382858
0.0371713
0.0360573
0.0349439
0.033831
0.0327182
0.031606
0.0304941
0.0293823
0.0282711
0.0271602
0.0260494
0.0249388
0.0238287
0.0227189
0.0216091
0.0204997
0.0193905
0.0182814
0.0171726
0.016064
0.0149553
0.0138468
0.0127386
0.0116306
0.0105225
0.00941463
0.00830689
0.00719904
0.00609145
0.00498393
0.00387625
0.00276861
0.00166119
0.000553798
0.0405261
0.0394105
0.0382954
0.0371806
0.0360662
0.0349524
0.0338391
0.0327259
0.0316134
0.0305012
0.0293891
0.0282776
0.0271663
0.0260552
0.0249443
0.023834
0.0227238
0.0216137
0.0205041
0.0193947
0.0182852
0.0171762
0.0160673
0.0149584
0.0138497
0.0127413
0.011633
0.0105246
0.00941655
0.00830858
0.0072005
0.00609269
0.00498494
0.00387703
0.00276916
0.00166153
0.000553909
0.040536
0.03942
0.0383045
0.0371893
0.0360746
0.0349605
0.0338468
0.0327333
0.0316204
0.0305079
0.0293955
0.0282837
0.0271721
0.0260607
0.0249496
0.0238389
0.0227285
0.0216182
0.0205083
0.0193986
0.0182889
0.0171796
0.0160705
0.0149614
0.0138524
0.0127438
0.0116352
0.0105267
0.00941837
0.00831019
0.00720188
0.00609386
0.00498589
0.00387777
0.00276969
0.00166185
0.000554015
0.0405454
0.0394291
0.0383132
0.0371976
0.0360825
0.0349681
0.0338541
0.0327403
0.0316271
0.0305143
0.0294016
0.0282895
0.0271777
0.026066
0.0249546
0.0238436
0.022733
0.0216224
0.0205123
0.0194023
0.0182924
0.0171829
0.0160736
0.0149642
0.013855
0.0127461
0.0116374
0.0105286
0.0094201
0.00831171
0.0072032
0.00609497
0.0049868
0.00387848
0.0027702
0.00166215
0.000554115
0.0405543
0.0394376
0.0383214
0.0372055
0.0360901
0.0349753
0.033861
0.0327469
0.0316334
0.0305203
0.0294074
0.028295
0.0271829
0.0260709
0.0249593
0.0238481
0.0227372
0.0216264
0.020516
0.0194059
0.0182957
0.017186
0.0160764
0.0149668
0.0138574
0.0127484
0.0116394
0.0105304
0.00942175
0.00831315
0.00720445
0.00609602
0.00498766
0.00387915
0.00277067
0.00166243
0.000554211
0.0405628
0.0394457
0.0383292
0.0372129
0.0360972
0.0349822
0.0338676
0.0327532
0.0316394
0.030526
0.0294128
0.0283002
0.0271878
0.0260756
0.0249637
0.0238523
0.0227412
0.0216302
0.0205196
0.0194092
0.0182988
0.0171889
0.0160791
0.0149694
0.0138597
0.0127505
0.0116414
0.0105322
0.00942329
0.00831452
0.00720562
0.00609701
0.00498847
0.00387978
0.00277112
0.0016627
0.0005543
0.0405707
0.0394533
0.0383365
0.0372199
0.0361039
0.0349886
0.0338737
0.032759
0.031645
0.0305314
0.0294179
0.028305
0.0271925
0.02608
0.0249679
0.0238563
0.022745
0.0216337
0.0205229
0.0194123
0.0183018
0.0171916
0.0160817
0.0149717
0.0138619
0.0127525
0.0116432
0.0105338
0.00942475
0.00831579
0.00720673
0.00609795
0.00498923
0.00388037
0.00277154
0.00166295
0.000554385
0.040578
0.0394604
0.0383432
0.0372264
0.0361102
0.0349946
0.0338794
0.0327645
0.0316503
0.0305364
0.0294227
0.0283096
0.0271968
0.0260841
0.0249718
0.02386
0.0227485
0.021637
0.020526
0.0194152
0.0183045
0.0171942
0.0160841
0.0149739
0.0138639
0.0127543
0.0116449
0.0105353
0.0094261
0.00831699
0.00720776
0.00609882
0.00498994
0.00388092
0.00277194
0.00166319
0.000554463
0.0405849
0.0394669
0.0383495
0.0372325
0.0361159
0.0350001
0.0338847
0.0327696
0.0316551
0.030541
0.0294271
0.0283138
0.0272008
0.026088
0.0249754
0.0238634
0.0227517
0.0216401
0.0205289
0.019418
0.018307
0.0171966
0.0160863
0.014976
0.0138658
0.0127561
0.0116464
0.0105367
0.00942736
0.00831809
0.00720872
0.00609962
0.0049906
0.00388143
0.0027723
0.00166341
0.000554536
0.0405912
0.039473
0.0383554
0.0372381
0.0361213
0.0350052
0.0338896
0.0327743
0.0316596
0.0305453
0.0294312
0.0283177
0.0272045
0.0260915
0.0249788
0.0238666
0.0227547
0.0216429
0.0205315
0.0194205
0.0183094
0.0171987
0.0160883
0.0149778
0.0138676
0.0127576
0.0116479
0.010538
0.00942852
0.00831911
0.0072096
0.00610037
0.00499121
0.0038819
0.00277264
0.00166361
0.000554603
0.0405969
0.0394785
0.0383606
0.0372431
0.0361262
0.0350099
0.0338941
0.0327786
0.0316637
0.0305492
0.0294349
0.0283212
0.0272079
0.0260947
0.0249818
0.0238695
0.0227574
0.0216455
0.020534
0.0194227
0.0183115
0.0172007
0.0160901
0.0149796
0.0138691
0.0127591
0.0116492
0.0105392
0.00942957
0.00832004
0.0072104
0.00610105
0.00499176
0.00388233
0.00277294
0.0016638
0.000554665
0.0406021
0.0394835
0.0383654
0.0372477
0.0361305
0.0350141
0.0338981
0.0327824
0.0316673
0.0305527
0.0294383
0.0283244
0.0272109
0.0260976
0.0249846
0.0238721
0.0227599
0.0216478
0.0205362
0.0194248
0.0183134
0.0172025
0.0160918
0.0149811
0.0138706
0.0127604
0.0116504
0.0105403
0.00943053
0.00832088
0.00721112
0.00610166
0.00499226
0.00388272
0.00277322
0.00166396
0.00055472
0.0406067
0.0394879
0.0383697
0.0372518
0.0361345
0.0350178
0.0339017
0.0327858
0.0316706
0.0305558
0.0294412
0.0283273
0.0272136
0.0261002
0.024987
0.0238744
0.0227621
0.0216499
0.0205381
0.0194266
0.0183152
0.0172041
0.0160933
0.0149825
0.0138718
0.0127616
0.0116514
0.0105412
0.00943138
0.00832163
0.00721177
0.0061022
0.00499271
0.00388307
0.00277347
0.00166411
0.000554769
0.0406108
0.0394918
0.0383734
0.0372554
0.0361379
0.0350211
0.0339049
0.0327889
0.0316735
0.0305586
0.0294439
0.0283298
0.027216
0.0261024
0.0249892
0.0238764
0.022764
0.0216517
0.0205398
0.0194282
0.0183167
0.0172055
0.0160946
0.0149837
0.013873
0.0127626
0.0116524
0.0105421
0.00943213
0.00832229
0.00721234
0.00610268
0.0049931
0.00388337
0.00277369
0.00166424
0.000554813
0.0406143
0.0394952
0.0383767
0.0372585
0.0361409
0.035024
0.0339076
0.0327915
0.031676
0.030561
0.0294461
0.0283319
0.0272181
0.0261044
0.024991
0.0238782
0.0227657
0.0216532
0.0205413
0.0194296
0.018318
0.0172067
0.0160957
0.0149847
0.0138739
0.0127635
0.0116532
0.0105428
0.00943277
0.00832285
0.00721283
0.0061031
0.00499344
0.00388363
0.00277387
0.00166435
0.00055485
0.0406172
0.039498
0.0383793
0.0372611
0.0361433
0.0350263
0.0339099
0.0327936
0.0316781
0.0305629
0.029448
0.0283337
0.0272198
0.026106
0.0249926
0.0238796
0.0227671
0.0216545
0.0205425
0.0194308
0.018319
0.0172078
0.0160967
0.0149856
0.0138747
0.0127642
0.0116538
0.0105434
0.0094333
0.00832332
0.00721323
0.00610344
0.00499372
0.00388385
0.00277403
0.00166444
0.000554881
0.0406196
0.0395002
0.0383815
0.0372631
0.0361453
0.0350282
0.0339117
0.0327954
0.0316797
0.0305645
0.0294495
0.0283351
0.0272211
0.0261073
0.0249938
0.0238808
0.0227682
0.0216556
0.0205435
0.0194317
0.0183199
0.0172086
0.0160974
0.0149863
0.0138754
0.0127648
0.0116544
0.0105439
0.00943373
0.0083237
0.00721356
0.00610372
0.00499394
0.00388402
0.00277415
0.00166452
0.000554906
0.0406213
0.0395019
0.0383831
0.0372647
0.0361468
0.0350297
0.033913
0.0327967
0.031681
0.0305657
0.0294507
0.0283362
0.0272222
0.0261083
0.0249947
0.0238817
0.022769
0.0216564
0.0205443
0.0194324
0.0183206
0.0172092
0.016098
0.0149868
0.0138758
0.0127652
0.0116548
0.0105442
0.00943406
0.00832398
0.00721381
0.00610392
0.00499411
0.00388416
0.00277425
0.00166458
0.000554925
0.0406225
0.0395031
0.0383842
0.0372657
0.0361478
0.0350306
0.0339139
0.0327975
0.0316818
0.0305665
0.0294514
0.0283369
0.0272229
0.0261089
0.0249953
0.0238823
0.0227696
0.0216569
0.0205447
0.0194329
0.018321
0.0172096
0.0160984
0.0149872
0.0138762
0.0127655
0.011655
0.0105445
0.00943427
0.00832417
0.00721397
0.00610406
0.00499422
0.00388424
0.00277431
0.00166461
0.000554937
0.0406231
0.0395036
0.0383847
0.0372662
0.0361483
0.0350311
0.0339144
0.032798
0.0316822
0.0305669
0.0294518
0.0283373
0.0272232
0.0261093
0.0249956
0.0238826
0.0227698
0.0216572
0.020545
0.0194331
0.0183212
0.0172098
0.0160986
0.0149874
0.0138763
0.0127657
0.0116552
0.0105446
0.00943438
0.00832427
0.00721405
0.00610413
0.00499428
0.00388429
0.00277434
0.00166463
0.000554943
0.0406231
0.0395036
0.0383847
0.0372662
0.0361483
0.0350311
0.0339144
0.032798
0.0316822
0.0305669
0.0294518
0.0283373
0.0272232
0.0261093
0.0249956
0.0238826
0.0227698
0.0216572
0.020545
0.0194331
0.0183212
0.0172098
0.0160986
0.0149874
0.0138763
0.0127657
0.0116552
0.0105446
0.00943438
0.00832427
0.00721405
0.00610413
0.00499428
0.00388429
0.00277434
0.00166463
0.000554943
0.0406225
0.0395031
0.0383842
0.0372657
0.0361478
0.0350306
0.0339139
0.0327975
0.0316818
0.0305665
0.0294514
0.028337
0.0272229
0.0261089
0.0249953
0.0238823
0.0227696
0.0216569
0.0205447
0.0194329
0.018321
0.0172096
0.0160984
0.0149872
0.0138762
0.0127655
0.011655
0.0105445
0.00943427
0.00832417
0.00721397
0.00610406
0.00499422
0.00388424
0.00277431
0.00166461
0.000554937
0.0406213
0.0395019
0.0383831
0.0372647
0.0361468
0.0350297
0.033913
0.0327967
0.031681
0.0305657
0.0294507
0.0283362
0.0272222
0.0261083
0.0249947
0.0238817
0.022769
0.0216564
0.0205443
0.0194324
0.0183206
0.0172092
0.016098
0.0149868
0.0138758
0.0127652
0.0116548
0.0105442
0.00943406
0.00832399
0.00721381
0.00610392
0.00499411
0.00388416
0.00277425
0.00166458
0.000554925
0.0406196
0.0395002
0.0383815
0.0372631
0.0361453
0.0350282
0.0339117
0.0327954
0.0316797
0.0305645
0.0294495
0.0283352
0.0272211
0.0261073
0.0249938
0.0238808
0.0227682
0.0216556
0.0205435
0.0194317
0.0183199
0.0172086
0.0160974
0.0149863
0.0138754
0.0127648
0.0116544
0.0105439
0.00943374
0.0083237
0.00721356
0.00610372
0.00499394
0.00388402
0.00277415
0.00166452
0.000554906
0.0406172
0.039498
0.0383794
0.0372611
0.0361433
0.0350264
0.0339099
0.0327936
0.0316781
0.0305629
0.029448
0.0283337
0.0272198
0.026106
0.0249926
0.0238797
0.0227671
0.0216546
0.0205425
0.0194308
0.0183191
0.0172078
0.0160967
0.0149856
0.0138747
0.0127642
0.0116538
0.0105434
0.00943331
0.00832332
0.00721324
0.00610344
0.00499372
0.00388385
0.00277403
0.00166444
0.000554881
0.0406143
0.0394952
0.0383767
0.0372585
0.0361409
0.035024
0.0339076
0.0327915
0.031676
0.030561
0.0294461
0.0283319
0.0272181
0.0261044
0.024991
0.0238782
0.0227657
0.0216533
0.0205413
0.0194296
0.018318
0.0172068
0.0160958
0.0149847
0.0138739
0.0127635
0.0116532
0.0105428
0.00943277
0.00832285
0.00721283
0.0061031
0.00499344
0.00388363
0.00277387
0.00166435
0.00055485
0.0406108
0.0394919
0.0383735
0.0372554
0.0361379
0.0350212
0.0339049
0.0327889
0.0316735
0.0305586
0.0294439
0.0283298
0.027216
0.0261024
0.0249892
0.0238764
0.022764
0.0216517
0.0205398
0.0194282
0.0183167
0.0172055
0.0160946
0.0149837
0.013873
0.0127626
0.0116524
0.0105421
0.00943213
0.00832229
0.00721234
0.00610269
0.0049931
0.00388337
0.00277369
0.00166424
0.000554813
0.0406068
0.039488
0.0383697
0.0372518
0.0361345
0.0350179
0.0339017
0.0327859
0.0316706
0.0305559
0.0294413
0.0283273
0.0272136
0.0261002
0.024987
0.0238744
0.0227621
0.0216499
0.0205381
0.0194266
0.0183152
0.0172041
0.0160933
0.0149825
0.0138718
0.0127616
0.0116514
0.0105412
0.00943138
0.00832163
0.00721178
0.00610221
0.00499271
0.00388307
0.00277347
0.00166411
0.00055477
0.0406021
0.0394835
0.0383655
0.0372477
0.0361306
0.0350141
0.0338981
0.0327824
0.0316674
0.0305527
0.0294383
0.0283244
0.0272109
0.0260976
0.0249846
0.0238721
0.0227599
0.0216478
0.0205362
0.0194248
0.0183135
0.0172025
0.0160918
0.0149811
0.0138706
0.0127604
0.0116504
0.0105403
0.00943053
0.00832089
0.00721113
0.00610166
0.00499227
0.00388272
0.00277322
0.00166396
0.00055472
0.0405969
0.0394785
0.0383607
0.0372432
0.0361262
0.0350099
0.0338941
0.0327786
0.0316637
0.0305492
0.0294349
0.0283212
0.0272079
0.0260947
0.0249818
0.0238695
0.0227574
0.0216455
0.020534
0.0194227
0.0183115
0.0172007
0.0160902
0.0149796
0.0138691
0.0127591
0.0116492
0.0105392
0.00942958
0.00832005
0.0072104
0.00610105
0.00499177
0.00388233
0.00277295
0.0016638
0.000554665
0.0405912
0.039473
0.0383554
0.0372381
0.0361213
0.0350052
0.0338897
0.0327743
0.0316596
0.0305453
0.0294312
0.0283177
0.0272045
0.0260915
0.0249788
0.0238666
0.0227547
0.0216429
0.0205316
0.0194205
0.0183094
0.0171988
0.0160883
0.0149779
0.0138676
0.0127576
0.0116479
0.010538
0.00942852
0.00831912
0.0072096
0.00610037
0.00499121
0.0038819
0.00277264
0.00166361
0.000554604
0.0405849
0.039467
0.0383496
0.0372325
0.036116
0.0350001
0.0338848
0.0327696
0.0316551
0.030541
0.0294271
0.0283138
0.0272008
0.026088
0.0249755
0.0238635
0.0227517
0.0216401
0.0205289
0.019418
0.0183071
0.0171966
0.0160863
0.014976
0.0138658
0.0127561
0.0116464
0.0105367
0.00942737
0.0083181
0.00720872
0.00609963
0.00499061
0.00388143
0.0027723
0.00166341
0.000554537
0.0405781
0.0394604
0.0383433
0.0372265
0.0361102
0.0349946
0.0338795
0.0327646
0.0316503
0.0305364
0.0294227
0.0283096
0.0271968
0.0260842
0.0249718
0.02386
0.0227485
0.021637
0.020526
0.0194153
0.0183045
0.0171942
0.0160841
0.0149739
0.013864
0.0127543
0.0116449
0.0105353
0.00942611
0.00831699
0.00720777
0.00609882
0.00498995
0.00388092
0.00277194
0.00166319
0.000554464
0.0405707
0.0394533
0.0383365
0.03722
0.0361039
0.0349886
0.0338737
0.0327591
0.031645
0.0305314
0.0294179
0.028305
0.0271925
0.0260801
0.0249679
0.0238563
0.022745
0.0216337
0.0205229
0.0194123
0.0183018
0.0171916
0.0160817
0.0149717
0.0138619
0.0127525
0.0116432
0.0105338
0.00942476
0.0083158
0.00720674
0.00609795
0.00498924
0.00388037
0.00277155
0.00166296
0.000554385
0.0405628
0.0394457
0.0383292
0.037213
0.0360973
0.0349822
0.0338676
0.0327532
0.0316394
0.0305261
0.0294128
0.0283002
0.0271879
0.0260757
0.0249638
0.0238524
0.0227413
0.0216302
0.0205196
0.0194092
0.0182989
0.0171889
0.0160792
0.0149694
0.0138598
0.0127505
0.0116414
0.0105322
0.0094233
0.00831453
0.00720563
0.00609702
0.00498848
0.00387978
0.00277112
0.0016627
0.000554301
0.0405544
0.0394377
0.0383215
0.0372056
0.0360901
0.0349754
0.0338611
0.032747
0.0316335
0.0305204
0.0294074
0.028295
0.0271829
0.026071
0.0249593
0.0238482
0.0227373
0.0216264
0.020516
0.0194059
0.0182957
0.017186
0.0160764
0.0149669
0.0138574
0.0127484
0.0116395
0.0105304
0.00942176
0.00831317
0.00720446
0.00609603
0.00498767
0.00387915
0.00277068
0.00166243
0.000554211
0.0405455
0.0394291
0.0383132
0.0371977
0.0360826
0.0349681
0.0338541
0.0327403
0.0316271
0.0305143
0.0294016
0.0282895
0.0271777
0.026066
0.0249546
0.0238437
0.022733
0.0216224
0.0205123
0.0194023
0.0182924
0.0171829
0.0160736
0.0149642
0.013855
0.0127461
0.0116374
0.0105286
0.00942012
0.00831172
0.00720321
0.00609498
0.00498681
0.00387848
0.0027702
0.00166215
0.000554116
0.040536
0.0394201
0.0383046
0.0371894
0.0360746
0.0349605
0.0338468
0.0327333
0.0316204
0.0305079
0.0293955
0.0282837
0.0271722
0.0260607
0.0249496
0.023839
0.0227286
0.0216182
0.0205083
0.0193986
0.0182889
0.0171796
0.0160705
0.0149614
0.0138524
0.0127438
0.0116353
0.0105267
0.00941838
0.0083102
0.00720189
0.00609387
0.0049859
0.00387778
0.0027697
0.00166185
0.000554016
0.0405261
0.0394106
0.0382954
0.0371806
0.0360662
0.0349525
0.0338391
0.032726
0.0316134
0.0305012
0.0293891
0.0282776
0.0271664
0.0260552
0.0249444
0.023834
0.0227239
0.0216138
0.0205041
0.0193947
0.0182853
0.0171762
0.0160673
0.0149584
0.0138497
0.0127413
0.011633
0.0105246
0.00941656
0.0083086
0.00720051
0.0060927
0.00498494
0.00387704
0.00276917
0.00166153
0.00055391
0.0405157
0.0394005
0.0382858
0.0371714
0.0360574
0.034944
0.033831
0.0327182
0.031606
0.0304941
0.0293824
0.0282712
0.0271602
0.0260494
0.0249388
0.0238288
0.0227189
0.0216091
0.0204997
0.0193906
0.0182814
0.0171726
0.016064
0.0149553
0.0138468
0.0127386
0.0116306
0.0105225
0.00941464
0.00830691
0.00719905
0.00609146
0.00498394
0.00387626
0.00276861
0.0016612
0.000553799
0.0405044
0.0393897
0.0382754
0.0371614
0.0360478
0.0349348
0.0338222
0.0327098
0.031598
0.0304865
0.0293751
0.0282642
0.0271536
0.0260431
0.0249329
0.0238231
0.0227136
0.021604
0.020495
0.0193861
0.0182772
0.0171687
0.0160603
0.0149519
0.0138437
0.0127358
0.011628
0.0105201
0.00941256
0.00830508
0.00719747
0.00609013
0.00498285
0.00387541
0.00276801
0.00166083
0.000553678
0.0404919
0.0393777
0.0382639
0.0371504
0.0360372
0.0349247
0.0338126
0.0327006
0.0315891
0.030478
0.029367
0.0282565
0.0271463
0.0260361
0.0249263
0.0238168
0.0227076
0.0215985
0.0204897
0.0193811
0.0182726
0.0171644
0.0160563
0.0149482
0.0138403
0.0127327
0.0116252
0.0105176
0.00941027
0.00830306
0.00719572
0.00608866
0.00498165
0.00387448
0.00276734
0.00166044
0.000553545
0.0404782
0.0393645
0.0382513
0.0371382
0.0360256
0.0349135
0.0338019
0.0326903
0.0315794
0.0304687
0.0293581
0.028248
0.0271382
0.0260285
0.024919
0.0238099
0.0227011
0.0215923
0.0204839
0.0193757
0.0182674
0.0171596
0.0160519
0.0149441
0.0138365
0.0127292
0.011622
0.0105147
0.00940773
0.00830083
0.0071938
0.00608703
0.00498032
0.00387345
0.00276661
0.00165999
0.000553398
0.040463
0.03935
0.0382373
0.0371248
0.0360127
0.0349012
0.0337901
0.0326791
0.0315686
0.0304584
0.0293483
0.0282387
0.0271293
0.02602
0.024911
0.0238023
0.0226939
0.0215855
0.0204775
0.0193697
0.0182618
0.0171543
0.016047
0.0149396
0.0138323
0.0127254
0.0116185
0.0105116
0.00940494
0.00829838
0.00719168
0.00608524
0.00497886
0.00387231
0.00276579
0.00165951
0.000553236
0.0404464
0.0393339
0.0382219
0.0371101
0.0359986
0.0348877
0.0337771
0.0326667
0.0315567
0.0304471
0.0293375
0.0282284
0.0271195
0.0260107
0.0249021
0.0237939
0.022686
0.021578
0.0204704
0.0193631
0.0182556
0.0171485
0.0160416
0.0149346
0.0138277
0.0127212
0.0116147
0.0105081
0.00940187
0.00829567
0.00718934
0.00608327
0.00497724
0.00387106
0.0027649
0.00165897
0.000553058
0.040428
0.0393163
0.038205
0.0370939
0.0359831
0.0348728
0.0337629
0.032653
0.0315437
0.0304346
0.0293256
0.0282171
0.0271087
0.0260005
0.0248924
0.0237847
0.0226773
0.0215698
0.0204627
0.0193558
0.0182488
0.0171422
0.0160357
0.0149291
0.0138227
0.0127165
0.0116105
0.0105043
0.00939849
0.0082927
0.00718677
0.0060811
0.00497547
0.00386968
0.00276392
0.00165838
0.000552862
0.0404079
0.039297
0.0381864
0.037076
0.035966
0.0348564
0.0337472
0.032638
0.0315294
0.0304209
0.0293126
0.0282046
0.0270969
0.0259892
0.0248817
0.0237746
0.0226677
0.0215608
0.0204542
0.0193478
0.0182413
0.0171352
0.0160292
0.0149231
0.0138171
0.0127115
0.0116059
0.0105002
0.00939477
0.00828943
0.00718394
0.00607871
0.00497353
0.00386817
0.00276284
0.00165774
0.000552646
0.0403858
0.0392758
0.0381661
0.0370565
0.0359473
0.0348385
0.03373
0.0326216
0.0315137
0.0304059
0.0292983
0.028191
0.0270839
0.0259769
0.02487
0.0237635
0.0226572
0.0215509
0.0204449
0.019339
0.0182331
0.0171275
0.016022
0.0149165
0.013811
0.0127059
0.0116008
0.0104956
0.0093907
0.00828585
0.00718085
0.0060761
0.00497139
0.00386651
0.00276166
0.00165703
0.00055241
0.0403616
0.0392526
0.0381438
0.0370352
0.0359268
0.0348189
0.0337112
0.0326036
0.0314965
0.0303895
0.0292826
0.0281761
0.0270697
0.0259634
0.0248572