/*--------------------------------*- C++ -*----------------------------------*\
  =========                 |
  \\      /  F ield         | OpenFOAM: The Open Source CFD Toolbox
   \\    /   O peration     | Website:  https://openfoam.org
    \\  /    A nd           | Version:  7
     \\/     M anipulation  |
\*---------------------------------------------------------------------------*/
FoamFile
{
    version     2.0;
    format      ascii;
    class       volVectorField;
    location    "0";
    object      Fc;
}
// * * * * * * * * * * * * * * * * * * * * * * * * * * * * * * * * * * * * * //

dimensions      [1 -2 -2 0 0 0 0];

internalField   nonuniform List<vector> 
58002
(
(0 0 0)
(0 0 0)
(0 0 0)
(0 0 0)
(0 0 0)
(0 0 0)
(0 0 0)
(0 0 0)
(0 0 0)
(0 0 0)
(0 0 0)
(0 0 0)
(0 0 0)
(0 0 0)
(0 0 0)
(0 0 0)
(0 0 0)
(0 0 0)
(0 0 0)
(0 0 0)
(0 0 0)
(0 0 0)
(0 0 0)
(0 0 0)
(0 0 0)
(0 0 0)
(0 0 0)
(0 0 0)
(0 0 0)
(0 0 0)
(0 0 0)
(0 0 0)
(0 0 0)
(0 0 0)
(0 0 0)
(0 0 0)
(0 0 0)
(0 0 0)
(0 0 0)
(0 0 0)
(0 0 0)
(0 0 0)
(0 0 0)
(0 0 0)
(0 0 0)
(0 0 0)
(0 0 0)
(0 0 0)
(0 0 0)
(0 0 0)
(0 0 0)
(0 0 0)
(0 0 0)
(0 0 0)
(0 0 0)
(0 0 0)
(0 0 0)
(0 0 0)
(0 0 0)
(0 0 0)
(0 0 0)
(0 0 0)
(0 0 0)
(0 0 0)
(0 0 0)
(0 0 0)
(0 0 0)
(0 0 0)
(0 0 0)
(0 0 0)
(0 0 0)
(0 0 0)
(0 0 0)
(0 0 0)
(0 0 0)
(0 0 0)
(0 0 0)
(0 0 0)
(0 0 0)
(0 0 0)
(0 0 0)
(0 0 0)
(0 0 0)
(0 0 0)
(0 0 0)
(0 0 0)
(0 0 0)
(0 0 0)
(0 0 0)
(0 0 0)
(0 0 0)
(0 0 0)
(0 0 0)
(0 0 0)
(0 0 0)
(0 0 0)
(0 0 0)
(0 0 0)
(0 0 0)
(0 0 0)
(0 0 0)
(0 0 0)
(0 0 0)
(0 0 0)
(0 0 0)
(0 0 0)
(0 0 0)
(0 0 0)
(0 0 0)
(0 0 0)
(0 0 0)
(0 0 0)
(0 0 0)
(0 0 0)
(0 0 0)
(0 0 0)
(0 0 0)
(0 0 0)
(0 0 0)
(0 0 0)
(0 0 0)
(0 0 0)
(0 0 0)
(0 0 0)
(0 0 0)
(0 0 0)
(0 0 0)
(0 0 0)
(0 0 0)
(0 0 0)
(0 0 0)
(0 0 0)
(0 0 0)
(0 0 0)
(0 0 0)
(0 0 0)
(0 0 0)
(0 0 0)
(0 0 0)
(0 0 0)
(0 0 0)
(0 0 0)
(0 0 0)
(0 0 0)
(0 0 0)
(0 0 0)
(0 0 0)
(0 0 0)
(0 0 0)
(0 0 0)
(0 0 0)
(0 0 0)
(0 0 0)
(0 0 0)
(0 0 0)
(0 0 0)
(0 0 0)
(0 0 0)
(0 0 0)
(0 0 0)
(0 0 0)
(0 0 0)
(0 0 0)
(0 0 0)
(0 0 0)
(0 0 0)
(0 0 0)
(0 0 0)
(0 0 0)
(0 0 0)
(0 0 0)
(0 0 0)
(0 0 0)
(0 0 0)
(0 0 0)
(0 0 0)
(0 0 0)
(0 0 0)
(0 0 0)
(0 0 0)
(0 0 0)
(0 0 0)
(0 0 0)
(0 0 0)
(0 0 0)
(0 0 0)
(0 0 0)
(0 0 0)
(0 0 0)
(0 0 0)
(0 0 0)
(0 0 0)
(0 0 0)
(0 0 0)
(0 0 0)
(0 0 0)
(0 0 0)
(0 0 0)
(0 0 0)
(0 0 0)
(0 0 0)
(0 0 0)
(0 0 0)
(0 0 0)
(0 0 0)
(0 0 0)
(0 0 0)
(0 0 0)
(0 0 0)
(0 0 0)
(0 0 0)
(0 0 0)
(0 0 0)
(0 0 0)
(0 0 0)
(0 0 0)
(0 0 0)
(0 0 0)
(0 0 0)
(0 0 0)
(0 0 0)
(0 0 0)
(0 0 0)
(0 0 0)
(0 0 0)
(0 0 0)
(0 0 0)
(0 0 0)
(0 0 0)
(0 0 0)
(0 0 0)
(0 0 0)
(0 0 0)
(0 0 0)
(0 0 0)
(0 0 0)
(0 0 0)
(0 0 0)
(0 0 0)
(0 0 0)
(0 0 0)
(0 0 0)
(0 0 0)
(0 0 0)
(0 0 0)
(0 0 0)
(0 0 0)
(0 0 0)
(0 0 0)
(0 0 0)
(0 0 0)
(0 0 0)
(0 0 0)
(0 0 0)
(0 0 0)
(0 0 0)
(0 0 0)
(0 0 0)
(0 0 0)
(0 0 0)
(0 0 0)
(0 0 0)
(0 0 0)
(0 0 0)
(0 0 0)
(0 0 0)
(0 0 0)
(0 0 0)
(0 0 0)
(0 0 0)
(0 0 0)
(0 0 0)
(0 0 0)
(0 0 0)
(0 0 0)
(0 0 0)
(0 0 0)
(0 0 0)
(0 0 0)
(0 0 0)
(0 0 0)
(0 0 0)
(0 0 0)
(0 0 0)
(0 0 0)
(0 0 0)
(0 0 0)
(0 0 0)
(0 0 0)
(0 0 0)
(0 0 0)
(0 0 0)
(0 0 0)
(0 0 0)
(0 0 0)
(0 0 0)
(0 0 0)
(0 0 0)
(0 0 0)
(0 0 0)
(0 0 0)
(0 0 0)
(0 0 0)
(0 0 0)
(0 0 0)
(0 0 0)
(0 0 0)
(0 0 0)
(0 0 0)
(0 0 0)
(0 0 0)
(0 0 0)
(0 0 0)
(0 0 0)
(0 0 0)
(0 0 0)
(0 0 0)
(0 0 0)
(0 0 0)
(0 0 0)
(0 0 0)
(0 0 0)
(0 0 0)
(0 0 0)
(0 0 0)
(0 0 0)
(0 0 0)
(0 0 0)
(0 0 0)
(0 0 0)
(0 0 0)
(0 0 0)
(0 0 0)
(0 0 0)
(0 0 0)
(0 0 0)
(0 0 0)
(0 0 0)
(0 0 0)
(0 0 0)
(0 0 0)
(0 0 0)
(0 0 0)
(0 0 0)
(0 0 0)
(0 0 0)
(0 0 0)
(0 0 0)
(0 0 0)
(0 0 0)
(0 0 0)
(0 0 0)
(0 0 0)
(0 0 0)
(0 0 0)
(0 0 0)
(0 0 0)
(0 0 0)
(0 0 0)
(0 0 0)
(0 0 0)
(0 0 0)
(0 0 0)
(0 0 0)
(0 0 0)
(0 0 0)
(0 0 0)
(0 0 0)
(0 0 0)
(0 0 0)
(0 0 0)
(0 0 0)
(0 0 0)
(0 0 0)
(0 0 0)
(0 0 0)
(0 0 0)
(0 0 0)
(0 0 0)
(0 0 0)
(0 0 0)
(0 0 0)
(0 0 0)
(0 0 0)
(0 0 0)
(0 0 0)
(0 0 0)
(0 0 0)
(0 0 0)
(0 0 0)
(0 0 0)
(0 0 0)
(0 0 0)
(0 0 0)
(0 0 0)
(0 0 0)
(0 0 0)
(0 0 0)
(0 0 0)
(0 0 0)
(0 0 0)
(0 0 0)
(0 0 0)
(0 0 0)
(0 0 0)
(0 0 0)
(0 0 0)
(0 0 0)
(0 0 0)
(0 0 0)
(0 0 0)
(0 0 0)
(0 0 0)
(0 0 0)
(0 0 0)
(0 0 0)
(0 0 0)
(0 0 0)
(0 0 0)
(0 0 0)
(0 0 0)
(0 0 0)
(0 0 0)
(0 0 0)
(0 0 0)
(0 0 0)
(0 0 0)
(0 0 0)
(0 0 0)
(0 0 0)
(0 0 0)
(0 0 0)
(0 0 0)
(0 0 0)
(0 0 0)
(0 0 0)
(0 0 0)
(0 0 0)
(0 0 0)
(0 0 0)
(0 0 0)
(0 0 0)
(0 0 0)
(0 0 0)
(0 0 0)
(0 0 0)
(0 0 0)
(0 0 0)
(0 0 0)
(0 0 0)
(0 0 0)
(0 0 0)
(0 0 0)
(0 0 0)
(0 0 0)
(0 0 0)
(0 0 0)
(0 0 0)
(0 0 0)
(0 0 0)
(0 0 0)
(0 0 0)
(0 0 0)
(0 0 0)
(0 0 0)
(0 0 0)
(0 0 0)
(0 0 0)
(0 0 0)
(0 0 0)
(0 0 0)
(0 0 0)
(0 0 0)
(0 0 0)
(0 0 0)
(0 0 0)
(0 0 0)
(0 0 0)
(0 0 0)
(0 0 0)
(0 0 0)
(0 0 0)
(0 0 0)
(0 0 0)
(0 0 0)
(0 0 0)
(0 0 0)
(0 0 0)
(0 0 0)
(0 0 0)
(0 0 0)
(0 0 0)
(0 0 0)
(0 0 0)
(0 0 0)
(0 0 0)
(0 0 0)
(0 0 0)
(0 0 0)
(0 0 0)
(0 0 0)
(0 0 0)
(0 0 0)
(0 0 0)
(0 0 0)
(0 0 0)
(0 0 0)
(0 0 0)
(0 0 0)
(0 0 0)
(0 0 0)
(0 0 0)
(0 0 0)
(0 0 0)
(0 0 0)
(0 0 0)
(0 0 0)
(0 0 0)
(0 0 0)
(0 0 0)
(0 0 0)
(0 0 0)
(0 0 0)
(0 0 0)
(0 0 0)
(0 0 0)
(0 0 0)
(0 0 0)
(0 0 0)
(0 0 0)
(0 0 0)
(0 0 0)
(0 0 0)
(0 0 0)
(0 0 0)
(0 0 0)
(0 0 0)
(0 0 0)
(0 0 0)
(0 0 0)
(0 0 0)
(0 0 0)
(0 0 0)
(0 0 0)
(0 0 0)
(0 0 0)
(0 0 0)
(0 0 0)
(0 0 0)
(0 0 0)
(0 0 0)
(0 0 0)
(0 0 0)
(0 0 0)
(0 0 0)
(0 0 0)
(0 0 0)
(0 0 0)
(0 0 0)
(0 0 0)
(0 0 0)
(0 0 0)
(0 0 0)
(0 0 0)
(0 0 0)
(0 0 0)
(0 0 0)
(0 0 0)
(0 0 0)
(0 0 0)
(30901.8 -33926 0)
(4856.03 -20069.1 0)
(-23.1004 -13697.3 0)
(-1033.42 -10232.7 0)
(-984.167 -8215.37 0)
(-587.708 -7012.93 0)
(-79.8304 -6309.35 0)
(450.845 -5935.42 0)
(967.671 -5797.03 0)
(1452.54 -5840.85 0)
(1892.51 -6036.53 0)
(2273.74 -6366.63 0)
(2578.37 -6819.9 0)
(2782.84 -7385.9 0)
(2857.8 -8049.38 0)
(2770.28 -8784.18 0)
(2489.73 -9547.31 0)
(1998.71 -10275.9 0)
(1306.67 -10892.2 0)
(20529 -16360.8 0)
(7246.2 -14995.2 0)
(2033.77 -11562.7 0)
(265.625 -9018.55 0)
(-182.855 -7336.5 0)
(-100.248 -6262.3 0)
(201.34 -5604.87 0)
(587.97 -5241.7 0)
(997.078 -5097.1 0)
(1395.59 -5124.67 0)
(1761.95 -5295.93 0)
(2077.69 -5592.74 0)
(2323.34 -6001.88 0)
(2476.44 -6510.31 0)
(2511.44 -7100.67 0)
(2401.88 -7746.54 0)
(2125.38 -8408.62 0)
(1671.8 -9033.75 0)
(1052.45 -9559.96 0)
(14352.9 -8290.45 0)
(7388.35 -10497 0)
(3131.23 -9180.68 0)
(1197.07 -7564.25 0)
(470.521 -6288.31 0)
(326.213 -5395.59 0)
(458.824 -4818.41 0)
(718.832 -4487.11 0)
(1029.44 -4349.22 0)
(1347.6 -4368.48 0)
(1645.47 -4520.36 0)
(1901.16 -4787.58 0)
(2094.1 -5156.19 0)
(2202.93 -5611.91 0)
(2205.35 -6136.5 0)
(2079.97 -6704.38 0)
(1810.37 -7280.23 0)
(1391.06 -7819.12 0)
(833.758 -8271.24 0)
(10613.4 -4224.12 0)
(6776.36 -6980.19 0)
(3581.62 -6882.25 0)
(1792.15 -6015.11 0)
(961.711 -5133.39 0)
(675.537 -4441 0)
(680.821 -3963.47 0)
(835.599 -3678.64 0)
(1059.69 -3557.56 0)
(1305.27 -3575.35 0)
(1540.75 -3712.67 0)
(1742.11 -3954.18 0)
(1888.28 -4286.25 0)
(1959.05 -4694.33 0)
(1934.86 -5160.28 0)
(1798.24 -5660.02 0)
(1537.05 -6162.13 0)
(1148.77 -6628.67 0)
(644.659 -7019.18 0)
(8439.51 -1743.3 0)
(5985.45 -4258.34 0)
(3640.58 -4798.08 0)
(2120.08 -4470.02 0)
(1301.3 -3925.73 0)
(943.675 -3426.55 0)
(861.179 -3054.84 0)
(933.059 -2824.57 0)
(1083.95 -2727.22 0)
(1265.74 -2748.93 0)
(1445.54 -2875.95 0)
(1598.44 -3095.54 0)
(1703.46 -3395.13 0)
(1741.63 -3760.62 0)
(1695.68 -4174.64 0)
(1551.22 -4614.98 0)
(1299.13 -5053.94 0)
(938.733 -5459.4 0)
(480.443 -5798.19 0)
(7445.9 466.886 0)
(5164.11 -2086.7 0)
(3469.9 -2955.63 0)
(2252.55 -2985.16 0)
(1512.43 -2705.51 0)
(1135.18 -2376.59 0)
(998.534 -2106.82 0)
(1008.51 -1933.47 0)
(1099.61 -1863.72 0)
(1226.77 -1893.17 0)
(1357.82 -2013.44 0)
(1468.1 -2214.63 0)
(1537.27 -2485.65 0)
(1547.65 -2813.39 0)
(1483.95 -3181.67 0)
(1334.17 -3570.33 0)
(1091.39 -3955.09 0)
(755.969 -4308.69 0)
(337.325 -4603.74 0)
(469.545 -11316.7 0)
(-435.77 -11513.7 0)
(-1336.52 -11487.8 0)
(-2167.97 -11274.1 0)
(-2891.5 -10922.9 0)
(-3492.7 -10484 0)
(-3973.9 -9998.28 0)
(-4346.55 -9495.66 0)
(-4625.73 -8996.39 0)
(-4826.86 -8513.18 0)
(-4964.09 -8053.37 0)
(-5049.65 -7620.65 0)
(-5093.82 -7216.34 0)
(-5104.99 -6840.32 0)
(-5089.99 -6491.54 0)
(-5054.3 -6168.52 0)
(-5002.31 -5869.52 0)
(-4937.55 -5592.72 0)
(-4862.82 -5336.33 0)
(-4780.36 -5098.65 0)
(-4691.96 -4878.04 0)
(-4599.05 -4673.03 0)
(-4502.76 -4482.26 0)
(-4404.01 -4304.48 0)
(-4303.51 -4138.58 0)
(-4201.84 -3983.52 0)
(-4099.45 -3838.4 0)
(-3996.71 -3702.4 0)
(-3893.88 -3574.75 0)
(-3791.19 -3454.8 0)
(-3688.8 -3341.93 0)
(-3586.86 -3235.6 0)
(-3485.43 -3135.32 0)
(-3384.6 -3040.64 0)
(-3284.41 -2951.15 0)
(-3184.88 -2866.5 0)
(-3086.04 -2786.34 0)
(-2987.87 -2710.39 0)
(-2890.38 -2638.36 0)
(-2793.54 -2570.01 0)
(-2697.34 -2505.1 0)
(-2601.74 -2443.44 0)
(-2506.72 -2384.83 0)
(-2412.23 -2329.11 0)
(-2318.24 -2276.1 0)
(-2224.7 -2225.68 0)
(-2131.59 -2177.7 0)
(-2038.81 -2132.04 0)
(-1946.35 -2088.6 0)
(-1854.15 -2047.27 0)
(-1762.16 -2007.97 0)
(-1670.36 -1970.61 0)
(-1578.63 -1935.11 0)
(-1486.94 -1901.4 0)
(-1395.23 -1869.43 0)
(-1303.44 -1839.14 0)
(-1211.54 -1810.48 0)
(-1119.39 -1783.4 0)
(-1026.97 -1757.87 0)
(-934.197 -1733.86 0)
(-840.999 -1711.35 0)
(-747.327 -1690.32 0)
(-653.04 -1670.74 0)
(-558.081 -1652.62 0)
(-462.39 -1635.96 0)
(-365.812 -1620.75 0)
(-268.275 -1607.01 0)
(-169.672 -1594.77 0)
(-69.8906 -1584.05 0)
(31.1578 -1574.88 0)
(133.667 -1567.31 0)
(237.742 -1561.41 0)
(343.53 -1557.22 0)
(451.189 -1554.84 0)
(560.851 -1554.34 0)
(672.769 -1555.85 0)
(787.105 -1559.47 0)
(904.07 -1565.34 0)
(1023.89 -1573.61 0)
(1146.78 -1584.44 0)
(1273.1 -1598.02 0)
(1403.09 -1614.52 0)
(1537.11 -1634.15 0)
(1675.54 -1657.09 0)
(1818.8 -1683.48 0)
(1967.53 -1713.43 0)
(2122.4 -1746.94 0)
(2284.32 -1783.81 0)
(2454.79 -1823.61 0)
(2635.84 -1865.46 0)
(2830.77 -1907.85 0)
(3044.88 -1948.45 0)
(3286.88 -1983.9 0)
(3571.22 -2009.84 0)
(3920.41 -2021.19 0)
(4367.89 -2013.18 0)
(4956.27 -1982.13 0)
(314.269 -9925.97 0)
(-482.539 -10104.9 0)
(-1282.02 -10098.1 0)
(-2031.43 -9929.57 0)
(-2696.38 -9636.85 0)
(-3260.99 -9259.49 0)
(-3723.34 -8831.98 0)
(-4090.16 -8381.12 0)
(-4372.34 -7926.08 0)
(-4582.05 -7479.75 0)
(-4731.1 -7050.18 0)
(-4830.14 -6642 0)
(-4888.36 -6257.47 0)
(-4913.5 -5897.28 0)
(-4911.98 -5561.14 0)
(-4889.06 -5248.17 0)
(-4849.02 -4957.12 0)
(-4795.33 -4686.6 0)
(-4730.81 -4435.15 0)
(-4657.73 -4201.31 0)
(-4577.93 -3983.67 0)
(-4492.9 -3780.94 0)
(-4403.82 -3591.89 0)
(-4311.66 -3415.38 0)
(-4217.2 -3250.39 0)
(-4121.07 -3095.96 0)
(-4023.76 -2951.24 0)
(-3925.68 -2815.44 0)
(-3827.14 -2687.87 0)
(-3728.41 -2567.87 0)
(-3629.68 -2454.88 0)
(-3531.11 -2348.36 0)
(-3432.81 -2247.84 0)
(-3334.88 -2152.88 0)
(-3237.39 -2063.09 0)
(-3140.38 -1978.12 0)
(-3043.87 -1897.64 0)
(-2947.9 -1821.36 0)
(-2852.46 -1749.01 0)
(-2757.55 -1680.34 0)
(-2663.15 -1615.13 0)
(-2569.25 -1553.18 0)
(-2475.84 -1494.3 0)
(-2382.86 -1438.32 0)
(-2290.31 -1385.08 0)
(-2198.13 -1334.44 0)
(-2106.3 -1286.27 0)
(-2014.76 -1240.44 0)
(-1923.47 -1196.86 0)
(-1832.4 -1155.42 0)
(-1741.49 -1116.03 0)
(-1650.72 -1078.62 0)
(-1559.98 -1043.09 0)
(-1469.24 -1009.38 0)
(-1378.46 -977.442 0)
(-1287.57 -947.214 0)
(-1196.55 -918.659 0)
(-1105.26 -891.717 0)
(-1013.67 -866.363 0)
(-921.725 -842.567 0)
(-829.338 -820.306 0)
(-736.469 -799.569 0)
(-642.98 -780.331 0)
(-548.818 -762.595 0)
(-453.926 -746.367 0)
(-358.152 -731.645 0)
(-261.43 -718.45 0)
(-163.655 -706.805 0)
(-64.72 -696.743 0)
(35.459 -688.305 0)
(137.07 -681.535 0)
(240.213 -676.499 0)
(345.029 -673.265 0)
(451.667 -671.92 0)
(560.255 -672.558 0)
(671.038 -675.292 0)
(784.166 -680.25 0)
(899.845 -687.573 0)
(1018.29 -697.423 0)
(1139.72 -709.972 0)
(1264.45 -725.419 0)
(1392.77 -743.97 0)
(1525 -765.836 0)
(1661.55 -791.236 0)
(1802.83 -820.361 0)
(1949.54 -853.4 0)
(2102.4 -890.451 0)
(2262.43 -931.501 0)
(2431.26 -976.416 0)
(2611.14 -1024.8 0)
(2805.62 -1075.99 0)
(3020.33 -1129.05 0)
(3264.21 -1182.87 0)
(3551.75 -1236.69 0)
(3905.24 -1290.66 0)
(4357.95 -1346.43 0)
(4953.97 -1404.8 0)
(177.952 -8588.46 0)
(-528.532 -8749.93 0)
(-1242.06 -8755.36 0)
(-1919.41 -8621.13 0)
(-2530.4 -8375.38 0)
(-3058.96 -8049.54 0)
(-3500.54 -7672.47 0)
(-3858.36 -7267.78 0)
(-4140 -6853.24 0)
(-4354.85 -6441.45 0)
(-4512.64 -6040.79 0)
(-4622.47 -5656.5 0)
(-4692.5 -5291.52 0)
(-4729.75 -4947.25 0)
(-4740.19 -4624.02 0)
(-4728.8 -4321.45 0)
(-4699.69 -4038.77 0)
(-4656.26 -3774.95 0)
(-4601.29 -3528.85 0)
(-4537.06 -3299.26 0)
(-4465.43 -3084.98 0)
(-4387.92 -2884.89 0)
(-4305.77 -2697.88 0)
(-4219.98 -2522.94 0)
(-4131.38 -2359.13 0)
(-4040.64 -2205.58 0)
(-3948.29 -2061.48 0)
(-3854.78 -1926.11 0)
(-3760.47 -1798.79 0)
(-3665.63 -1678.92 0)
(-3570.51 -1565.96 0)
(-3475.28 -1459.39 0)
(-3380.09 -1358.75 0)
(-3285.04 -1263.62 0)
(-3190.23 -1173.64 0)
(-3095.72 -1088.44 0)
(-3001.56 -1007.73 0)
(-2907.77 -931.197 0)
(-2814.38 -858.593 0)
(-2721.4 -789.674 0)
(-2628.81 -724.22 0)
(-2536.63 -662.032 0)
(-2444.82 -602.926 0)
(-2353.37 -546.734 0)
(-2262.26 -493.299 0)
(-2171.45 -442.482 0)
(-2080.93 -394.161 0)
(-1990.63 -348.201 0)
(-1900.53 -304.506 0)
(-1810.6 -262.976 0)
(-1720.77 -223.522 0)
(-1631.05 -186.074 0)
(-1541.32 -150.534 0)
(-1451.57 -116.85 0)
(-1361.73 -84.9598 0)
(-1271.76 -54.8131 0)
(-1181.63 -26.3714 0)
(-1091.21 0.423496 0)
(-1000.49 25.5953 0)
(-909.379 49.1726 0)
(-817.826 71.1759 0)
(-725.783 91.6151 0)
(-633.116 110.513 0)
(-539.776 127.863 0)
(-445.71 143.659 0)
(-350.768 157.9 0)
(-254.89 170.56 0)
(-157.975 181.614 0)
(-59.9201 191.027 0)
(39.3537 198.753 0)
(140.029 204.742 0)
(242.199 208.928 0)
(345.998 211.233 0)
(451.569 211.568 0)
(559.033 209.832 0)
(668.625 205.905 0)
(780.487 199.652 0)
(894.816 190.921 0)
(1011.82 179.543 0)
(1131.7 165.332 0)
(1254.78 148.074 0)
(1381.31 127.544 0)
(1511.64 103.503 0)
(1646.16 75.6968 0)
(1785.3 43.8828 0)
(1929.76 7.79046 0)
(2080.3 -32.8033 0)
(2237.99 -78.0781 0)
(2404.52 -128.218 0)
(2582.19 -183.339 0)
(2774.59 -243.606 0)
(2987.28 -309.427 0)
(3228.87 -381.853 0)
(3513.13 -463.5 0)
(3861.27 -559.628 0)
(4306.39 -678.931 0)
(4897.39 -829.653 0)
(58.0846 -7295.24 0)
(-572.479 -7440.33 0)
(-1212.61 -7453.18 0)
(-1826.66 -7345.07 0)
(-2388.36 -7137.18 0)
(-2882.19 -6854.46 0)
(-3302.05 -6520.99 0)
(-3648.68 -6157.31 0)
(-3927.04 -5779.61 0)
(-4144.23 -5399.93 0)
(-4308.1 -5026.66 0)
(-4426.37 -4665.39 0)
(-4506.16 -4319.57 0)
(-4553.79 -3991.13 0)
(-4574.75 -3680.89 0)
(-4573.68 -3388.96 0)
(-4554.52 -3114.94 0)
(-4520.54 -2858.16 0)
(-4474.46 -2617.76 0)
(-4418.54 -2392.76 0)
(-4354.64 -2182.18 0)
(-4284.29 -1985.03 0)
(-4208.77 -1800.37 0)
(-4129.12 -1627.28 0)
(-4046.18 -1464.91 0)
(-3960.67 -1312.46 0)
(-3873.16 -1169.19 0)
(-3784.12 -1034.43 0)
(-3693.94 -907.552 0)
(-3602.94 -787.977 0)
(-3511.37 -675.185 0)
(-3419.44 -568.692 0)
(-3327.32 -468.056 0)
(-3235.13 -372.881 0)
(-3142.99 -282.798 0)
(-3050.97 -197.473 0)
(-2959.14 -116.6 0)
(-2867.53 -39.8978 0)
(-2776.19 32.8888 0)
(-2685.13 101.995 0)
(-2594.37 167.635 0)
(-2503.89 230.007 0)
(-2413.7 289.288 0)
(-2323.79 345.646 0)
(-2234.13 399.234 0)
(-2144.7 450.19 0)
(-2055.49 498.632 0)
(-1966.45 544.695 0)
(-1877.55 588.474 0)
(-1788.76 630.066 0)
(-1700.04 669.559 0)
(-1611.38 707.022 0)
(-1522.67 742.551 0)
(-1433.91 776.198 0)
(-1345.03 808.023 0)
(-1256 838.076 0)
(-1166.78 866.393 0)
(-1077.26 893.031 0)
(-987.407 918.012 0)
(-897.164 941.364 0)
(-806.464 963.106 0)
(-715.269 983.244 0)
(-623.448 1001.8 0)
(-530.954 1018.77 0)
(-437.739 1034.13 0)
(-343.657 1047.9 0)
(-248.651 1060.03 0)
(-152.626 1070.51 0)
(-55.4836 1079.28 0)
(42.8509 1086.31 0)
(142.553 1091.54 0)
(243.711 1094.9 0)
(346.452 1096.3 0)
(450.912 1095.65 0)
(557.203 1092.85 0)
(665.552 1087.77 0)
(776.092 1080.27 0)
(889.009 1070.18 0)
(1004.5 1057.33 0)
(1122.76 1041.52 0)
(1244.09 1022.51 0)
(1368.75 1000.07 0)
(1497.07 973.929 0)
(1629.41 943.792 0)
(1766.23 909.362 0)
(1908.21 870.282 0)
(2056.12 826.203 0)
(2211.01 776.748 0)
(2374.54 721.42 0)
(2548.96 659.613 0)
(2737.68 590.388 0)
(2945.82 512.114 0)
(3181.17 421.83 0)
(3455.96 313.885 0)
(3789.16 178.134 0)
(4212.45 -2.31907 0)
(4781.63 -249.172 0)
(-47.4499 -6039.2 0)
(-613.647 -6169.11 0)
(-1190.73 -6186.13 0)
(-1749.12 -6097.98 0)
(-2266.02 -5920.69 0)
(-2726.9 -5674.13 0)
(-3124.84 -5378.27 0)
(-3458.84 -5050.89 0)
(-3731.86 -4706.56 0)
(-3949.1 -4356.53 0)
(-4116.81 -4009.03 0)
(-4241.44 -3669.78 0)
(-4329.15 -3342.57 0)
(-4385.58 -3029.71 0)
(-4415.69 -2732.45 0)
(-4423.82 -2451.26 0)
(-4413.65 -2186.11 0)
(-4388.33 -1936.62 0)
(-4350.48 -1702.19 0)
(-4302.33 -1482.08 0)
(-4245.71 -1275.47 0)
(-4182.17 -1081.55 0)
(-4112.98 -899.494 0)
(-4039.2 -728.496 0)
(-3961.73 -567.793 0)
(-3881.28 -416.664 0)
(-3798.47 -274.432 0)
(-3713.79 -140.468 0)
(-3627.65 -14.1882 0)
(-3540.41 104.945 0)
(-3452.34 217.425 0)
(-3363.66 323.711 0)
(-3274.57 424.224 0)
(-3185.21 519.347 0)
(-3095.71 609.43 0)
(-3006.16 694.797 0)
(-2916.65 775.744 0)
(-2827.22 852.544 0)
(-2737.92 925.444 0)
(-2648.79 994.675 0)
(-2559.83 1060.45 0)
(-2471.07 1122.95 0)
(-2382.5 1182.36 0)
(-2294.13 1238.84 0)
(-2205.92 1292.54 0)
(-2117.89 1343.59 0)
(-2030 1392.12 0)
(-1942.22 1438.26 0)
(-1854.53 1482.09 0)
(-1766.9 1523.72 0)
(-1679.3 1563.23 0)
(-1591.71 1600.69 0)
(-1504.05 1636.19 0)
(-1416.29 1669.78 0)
(-1328.39 1701.53 0)
(-1240.3 1731.47 0)
(-1152.01 1759.65 0)
(-1063.4 1786.12 0)
(-974.441 1810.91 0)
(-885.081 1834.03 0)
(-795.255 1855.5 0)
(-704.929 1875.34 0)
(-613.975 1893.55 0)
(-522.35 1910.14 0)
(-430.01 1925.08 0)
(-336.814 1938.37 0)
(-242.708 1949.99 0)
(-147.602 1959.89 0)
(-51.4024 1968.05 0)
(45.9601 1974.4 0)
(144.655 1978.88 0)
(244.763 1981.43 0)
(346.407 1981.96 0)
(449.713 1980.37 0)
(554.786 1976.54 0)
(661.843 1970.35 0)
(771.007 1961.64 0)
(882.454 1950.25 0)
(996.372 1935.98 0)
(1112.93 1918.63 0)
(1232.44 1897.95 0)
(1355.13 1873.68 0)
(1481.32 1845.52 0)
(1611.36 1813.14 0)
(1745.68 1776.19 0)
(1884.95 1734.23 0)
(2029.89 1686.78 0)
(2181.52 1633.28 0)
(2341.4 1572.94 0)
(2511.58 1504.72 0)
(2695.11 1427.01 0)
(2896.44 1337.16 0)
(3122.04 1230.64 0)
(3381.82 1099.34 0)
(3690.89 928.884 0)
(4076.13 693.57 0)
(4597.43 349.599 0)
(-140.447 -4814.71 0)
(-651.655 -4930.67 0)
(-1174.28 -4949.61 0)
(-1683.62 -4876.77 0)
(-2159.95 -4724.32 0)
(-2589.88 -4508.11 0)
(-2966.19 -4244.71 0)
(-3286.7 -3949.39 0)
(-3552.86 -3635.16 0)
(-3768.34 -3312.4 0)
(-3938.02 -2989 0)
(-4067.22 -2670.68 0)
(-4161.23 -2361.41 0)
(-4225 -2063.77 0)
(-4263.02 -1779.33 0)
(-4279.27 -1508.9 0)
(-4277.19 -1252.73 0)
(-4259.75 -1010.7 0)
(-4229.5 -782.464 0)
(-4188.58 -567.469 0)
(-4138.8 -365.081 0)
(-4081.68 -174.627 0)
(-4018.51 4.59343 0)
(-3950.37 173.277 0)
(-3878.14 332.1 0)
(-3802.58 481.713 0)
(-3724.32 622.73 0)
(-3643.88 755.729 0)
(-3561.69 881.251 0)
(-3478.12 999.798 0)
(-3393.48 1111.83 0)
(-3308 1217.79 0)
(-3221.89 1318.07 0)
(-3135.33 1413.04 0)
(-3048.44 1503.03 0)
(-2961.34 1588.35 0)
(-2874.13 1669.29 0)
(-2786.86 1746.12 0)
(-2699.6 1819.07 0)
(-2612.38 1888.36 0)
(-2525.24 1954.2 0)
(-2438.19 2016.79 0)
(-2351.25 2076.28 0)
(-2264.41 2132.83 0)
(-2177.67 2186.61 0)
(-2091.03 2237.73 0)
(-2004.48 2286.31 0)
(-1917.97 2332.49 0)
(-1831.5 2376.35 0)
(-1745.04 2417.99 0)
(-1658.56 2457.49 0)
(-1572.06 2494.92 0)
(-1485.44 2530.38 0)
(-1398.7 2563.9 0)
(-1311.79 2595.55 0)
(-1224.67 2625.38 0)
(-1137.32 2653.41 0)
(-1049.64 2679.71 0)
(-961.593 2704.29 0)
(-873.133 2727.17 0)
(-784.2 2748.38 0)
(-694.762 2767.91 0)
(-604.696 2785.78 0)
(-513.963 2801.99 0)
(-422.521 2816.51 0)
(-330.235 2829.34 0)
(-237.055 2840.44 0)
(-142.896 2849.79 0)
(-47.668 2857.34 0)
(48.6915 2863.02 0)
(146.346 2866.79 0)
(245.37 2868.56 0)
(345.878 2868.24 0)
(447.991 2865.73 0)
(551.803 2860.92 0)
(657.521 2853.65 0)
(765.26 2843.79 0)
(875.182 2831.15 0)
(987.463 2815.52 0)
(1102.26 2796.71 0)
(1219.87 2774.43 0)
(1340.5 2748.41 0)
(1464.45 2718.33 0)
(1592.05 2683.82 0)
(1723.7 2644.47 0)
(1860.03 2599.77 0)
(2001.71 2549.12 0)
(2149.66 2491.79 0)
(2305.27 2426.75 0)
(2470.32 2352.59 0)
(2647.38 2267.16 0)
(2839.99 2167.05 0)
(3053.01 2046.64 0)
(3293.36 1896.17 0)
(3570.5 1698.47 0)
(3900.3 1421 0)
(4328.38 992.867 0)
(0 0 0)
(0 0 0)
(0 0 0)
(0 0 0)
(0 0 0)
(0 0 0)
(0 0 0)
(0 0 0)
(0 0 0)
(0 0 0)
(0 0 0)
(0 0 0)
(0 0 0)
(0 0 0)
(0 0 0)
(0 0 0)
(0 0 0)
(0 0 0)
(0 0 0)
(0 0 0)
(0 0 0)
(0 0 0)
(0 0 0)
(0 0 0)
(0 0 0)
(0 0 0)
(0 0 0)
(0 0 0)
(0 0 0)
(0 0 0)
(0 0 0)
(0 0 0)
(0 0 0)
(0 0 0)
(0 0 0)
(0 0 0)
(0 0 0)
(0 0 0)
(0 0 0)
(0 0 0)
(0 0 0)
(0 0 0)
(0 0 0)
(0 0 0)
(0 0 0)
(0 0 0)
(0 0 0)
(0 0 0)
(0 0 0)
(0 0 0)
(0 0 0)
(0 0 0)
(0 0 0)
(0 0 0)
(0 0 0)
(0 0 0)
(0 0 0)
(0 0 0)
(0 0 0)
(0 0 0)
(0 0 0)
(0 0 0)
(0 0 0)
(0 0 0)
(0 0 0)
(0 0 0)
(0 0 0)
(0 0 0)
(0 0 0)
(0 0 0)
(0 0 0)
(0 0 0)
(0 0 0)
(0 0 0)
(0 0 0)
(0 0 0)
(0 0 0)
(0 0 0)
(0 0 0)
(0 0 0)
(0 0 0)
(0 0 0)
(0 0 0)
(0 0 0)
(0 0 0)
(0 0 0)
(0 0 0)
(0 0 0)
(0 0 0)
(0 0 0)
(0 0 0)
(0 0 0)
(0 0 0)
(0 0 0)
(0 0 0)
(0 0 0)
(0 0 0)
(0 0 0)
(0 0 0)
(0 0 0)
(0 0 0)
(0 0 0)
(0 0 0)
(0 0 0)
(0 0 0)
(0 0 0)
(0 0 0)
(0 0 0)
(0 0 0)
(0 0 0)
(0 0 0)
(0 0 0)
(0 0 0)
(0 0 0)
(0 0 0)
(0 0 0)
(0 0 0)
(0 0 0)
(0 0 0)
(0 0 0)
(0 0 0)
(0 0 0)
(0 0 0)
(0 0 0)
(0 0 0)
(0 0 0)
(0 0 0)
(0 0 0)
(0 0 0)
(0 0 0)
(0 0 0)
(0 0 0)
(0 0 0)
(0 0 0)
(0 0 0)
(0 0 0)
(0 0 0)
(0 0 0)
(0 0 0)
(0 0 0)
(0 0 0)
(0 0 0)
(0 0 0)
(0 0 0)
(0 0 0)
(0 0 0)
(0 0 0)
(0 0 0)
(0 0 0)
(0 0 0)
(0 0 0)
(0 0 0)
(0 0 0)
(0 0 0)
(0 0 0)
(0 0 0)
(0 0 0)
(0 0 0)
(0 0 0)
(0 0 0)
(0 0 0)
(0 0 0)
(0 0 0)
(0 0 0)
(0 0 0)
(0 0 0)
(0 0 0)
(0 0 0)
(0 0 0)
(0 0 0)
(0 0 0)
(0 0 0)
(0 0 0)
(0 0 0)
(0 0 0)
(0 0 0)
(0 0 0)
(0 0 0)
(0 0 0)
(0 0 0)
(0 0 0)
(0 0 0)
(0 0 0)
(0 0 0)
(0 0 0)
(0 0 0)
(0 0 0)
(0 0 0)
(0 0 0)
(0 0 0)
(0 0 0)
(0 0 0)
(0 0 0)
(0 0 0)
(0 0 0)
(0 0 0)
(0 0 0)
(0 0 0)
(0 0 0)
(0 0 0)
(0 0 0)
(0 0 0)
(0 0 0)
(0 0 0)
(0 0 0)
(0 0 0)
(0 0 0)
(0 0 0)
(0 0 0)
(0 0 0)
(0 0 0)
(0 0 0)
(0 0 0)
(0 0 0)
(0 0 0)
(0 0 0)
(0 0 0)
(0 0 0)
(0 0 0)
(0 0 0)
(0 0 0)
(0 0 0)
(0 0 0)
(0 0 0)
(0 0 0)
(0 0 0)
(0 0 0)
(0 0 0)
(0 0 0)
(0 0 0)
(0 0 0)
(0 0 0)
(0 0 0)
(0 0 0)
(0 0 0)
(0 0 0)
(0 0 0)
(0 0 0)
(0 0 0)
(0 0 0)
(0 0 0)
(0 0 0)
(0 0 0)
(0 0 0)
(0 0 0)
(0 0 0)
(0 0 0)
(0 0 0)
(0 0 0)
(0 0 0)
(0 0 0)
(0 0 0)
(0 0 0)
(0 0 0)
(0 0 0)
(0 0 0)
(0 0 0)
(0 0 0)
(0 0 0)
(0 0 0)
(0 0 0)
(0 0 0)
(0 0 0)
(0 0 0)
(0 0 0)
(0 0 0)
(0 0 0)
(0 0 0)
(0 0 0)
(0 0 0)
(0 0 0)
(0 0 0)
(0 0 0)
(0 0 0)
(0 0 0)
(0 0 0)
(0 0 0)
(0 0 0)
(0 0 0)
(0 0 0)
(0 0 0)
(0 0 0)
(0 0 0)
(0 0 0)
(0 0 0)
(0 0 0)
(0 0 0)
(0 0 0)
(0 0 0)
(0 0 0)
(0 0 0)
(0 0 0)
(0 0 0)
(0 0 0)
(0 0 0)
(0 0 0)
(0 0 0)
(0 0 0)
(0 0 0)
(0 0 0)
(0 0 0)
(0 0 0)
(0 0 0)
(0 0 0)
(0 0 0)
(0 0 0)
(0 0 0)
(0 0 0)
(0 0 0)
(0 0 0)
(0 0 0)
(0 0 0)
(0 0 0)
(0 0 0)
(0 0 0)
(0 0 0)
(0 0 0)
(0 0 0)
(0 0 0)
(0 0 0)
(0 0 0)
(0 0 0)
(0 0 0)
(0 0 0)
(0 0 0)
(0 0 0)
(0 0 0)
(0 0 0)
(0 0 0)
(0 0 0)
(0 0 0)
(0 0 0)
(0 0 0)
(0 0 0)
(0 0 0)
(0 0 0)
(0 0 0)
(0 0 0)
(0 0 0)
(0 0 0)
(0 0 0)
(0 0 0)
(0 0 0)
(0 0 0)
(0 0 0)
(0 0 0)
(0 0 0)
(0 0 0)
(0 0 0)
(0 0 0)
(0 0 0)
(0 0 0)
(0 0 0)
(0 0 0)
(0 0 0)
(0 0 0)
(0 0 0)
(0 0 0)
(0 0 0)
(0 0 0)
(0 0 0)
(0 0 0)
(0 0 0)
(0 0 0)
(0 0 0)
(0 0 0)
(0 0 0)
(0 0 0)
(0 0 0)
(0 0 0)
(0 0 0)
(0 0 0)
(0 0 0)
(0 0 0)
(0 0 0)
(0 0 0)
(0 0 0)
(0 0 0)
(0 0 0)
(0 0 0)
(0 0 0)
(0 0 0)
(0 0 0)
(0 0 0)
(0 0 0)
(0 0 0)
(0 0 0)
(0 0 0)
(0 0 0)
(0 0 0)
(0 0 0)
(0 0 0)
(0 0 0)
(0 0 0)
(0 0 0)
(0 0 0)
(0 0 0)
(0 0 0)
(0 0 0)
(0 0 0)
(0 0 0)
(0 0 0)
(0 0 0)
(0 0 0)
(0 0 0)
(0 0 0)
(0 0 0)
(0 0 0)
(0 0 0)
(0 0 0)
(0 0 0)
(0 0 0)
(0 0 0)
(0 0 0)
(0 0 0)
(0 0 0)
(0 0 0)
(0 0 0)
(0 0 0)
(0 0 0)
(0 0 0)
(0 0 0)
(0 0 0)
(0 0 0)
(0 0 0)
(0 0 0)
(0 0 0)
(0 0 0)
(0 0 0)
(0 0 0)
(0 0 0)
(0 0 0)
(0 0 0)
(0 0 0)
(0 0 0)
(0 0 0)
(0 0 0)
(0 0 0)
(0 0 0)
(0 0 0)
(0 0 0)
(0 0 0)
(0 0 0)
(0 0 0)
(0 0 0)
(0 0 0)
(0 0 0)
(0 0 0)
(0 0 0)
(0 0 0)
(0 0 0)
(0 0 0)
(0 0 0)
(0 0 0)
(0 0 0)
(0 0 0)
(0 0 0)
(0 0 0)
(0 0 0)
(0 0 0)
(0 0 0)
(0 0 0)
(0 0 0)
(0 0 0)
(0 0 0)
(0 0 0)
(0 0 0)
(0 0 0)
(0 0 0)
(0 0 0)
(0 0 0)
(0 0 0)
(0 0 0)
(0 0 0)
(0 0 0)
(0 0 0)
(0 0 0)
(0 0 0)
(0 0 0)
(0 0 0)
(0 0 0)
(0 0 0)
(0 0 0)
(0 0 0)
(0 0 0)
(0 0 0)
(0 0 0)
(0 0 0)
(0 0 0)
(0 0 0)
(0 0 0)
(0 0 0)
(0 0 0)
(0 0 0)
(0 0 0)
(0 0 0)
(0 0 0)
(0 0 0)
(0 0 0)
(0 0 0)
(0 0 0)
(0 0 0)
(0 0 0)
(0 0 0)
(0 0 0)
(0 0 0)
(0 0 0)
(0 0 0)
(0 0 0)
(0 0 0)
(0 0 0)
(0 0 0)
(0 0 0)
(0 0 0)
(0 0 0)
(0 0 0)
(0 0 0)
(0 0 0)
(0 0 0)
(0 0 0)
(0 0 0)
(0 0 0)
(0 0 0)
(0 0 0)
(0 0 0)
(0 0 0)
(0 0 0)
(0 0 0)
(0 0 0)
(0 0 0)
(0 0 0)
(0 0 0)
(0 0 0)
(0 0 0)
(0 0 0)
(0 0 0)
(0 0 0)
(0 0 0)
(0 0 0)
(0 0 0)
(0 0 0)
(0 0 0)
(0 0 0)
(0 0 0)
(0 0 0)
(0 0 0)
(0 0 0)
(0 0 0)
(0 0 0)
(0 0 0)
(0 0 0)
(0 0 0)
(0 0 0)
(0 0 0)
(0 0 0)
(0 0 0)
(0 0 0)
(0 0 0)
(0 0 0)
(0 0 0)
(0 0 0)
(0 0 0)
(0 0 0)
(0 0 0)
(0 0 0)
(0 0 0)
(0 0 0)
(0 0 0)
(0 0 0)
(0 0 0)
(0 0 0)
(0 0 0)
(0 0 0)
(0 0 0)
(0 0 0)
(0 0 0)
(0 0 0)
(0 0 0)
(0 0 0)
(0 0 0)
(0 0 0)
(0 0 0)
(0 0 0)
(0 0 0)
(0 0 0)
(0 0 0)
(0 0 0)
(0 0 0)
(0 0 0)
(0 0 0)
(0 0 0)
(0 0 0)
(0 0 0)
(0 0 0)
(0 0 0)
(0 0 0)
(0 0 0)
(0 0 0)
(0 0 0)
(0 0 0)
(0 0 0)
(0 0 0)
(0 0 0)
(0 0 0)
(0 0 0)
(0 0 0)
(0 0 0)
(0 0 0)
(0 0 0)
(0 0 0)
(0 0 0)
(0 0 0)
(0 0 0)
(0 0 0)
(0 0 0)
(0 0 0)
(0 0 0)
(0 0 0)
(0 0 0)
(0 0 0)
(0 0 0)
(0 0 0)
(0 0 0)
(0 0 0)
(0 0 0)
(0 0 0)
(0 0 0)
(0 0 0)
(0 0 0)
(0 0 0)
(0 0 0)
(0 0 0)
(0 0 0)
(0 0 0)
(0 0 0)
(0 0 0)
(0 0 0)
(0 0 0)
(0 0 0)
(0 0 0)
(0 0 0)
(0 0 0)
(0 0 0)
(0 0 0)
(0 0 0)
(0 0 0)
(0 0 0)
(0 0 0)
(0 0 0)
(0 0 0)
(0 0 0)
(0 0 0)
(0 0 0)
(0 0 0)
(0 0 0)
(0 0 0)
(0 0 0)
(0 0 0)
(0 0 0)
(0 0 0)
(0 0 0)
(0 0 0)
(0 0 0)
(0 0 0)
(0 0 0)
(0 0 0)
(0 0 0)
(0 0 0)
(0 0 0)
(0 0 0)
(0 0 0)
(0 0 0)
(0 0 0)
(0 0 0)
(0 0 0)
(0 0 0)
(0 0 0)
(0 0 0)
(0 0 0)
(0 0 0)
(0 0 0)
(0 0 0)
(0 0 0)
(0 0 0)
(0 0 0)
(0 0 0)
(0 0 0)
(0 0 0)
(0 0 0)
(0 0 0)
(0 0 0)
(0 0 0)
(0 0 0)
(0 0 0)
(0 0 0)
(0 0 0)
(0 0 0)
(0 0 0)
(0 0 0)
(0 0 0)
(0 0 0)
(0 0 0)
(0 0 0)
(0 0 0)
(0 0 0)
(0 0 0)
(0 0 0)
(0 0 0)
(0 0 0)
(0 0 0)
(0 0 0)
(0 0 0)
(0 0 0)
(0 0 0)
(0 0 0)
(0 0 0)
(0 0 0)
(0 0 0)
(0 0 0)
(0 0 0)
(0 0 0)
(0 0 0)
(0 0 0)
(0 0 0)
(0 0 0)
(0 0 0)
(0 0 0)
(0 0 0)
(0 0 0)
(0 0 0)
(0 0 0)
(0 0 0)
(0 0 0)
(0 0 0)
(0 0 0)
(0 0 0)
(0 0 0)
(0 0 0)
(0 0 0)
(0 0 0)
(0 0 0)
(0 0 0)
(0 0 0)
(0 0 0)
(0 0 0)
(0 0 0)
(0 0 0)
(0 0 0)
(0 0 0)
(0 0 0)
(0 0 0)
(0 0 0)
(0 0 0)
(0 0 0)
(0 0 0)
(0 0 0)
(0 0 0)
(0 0 0)
(0 0 0)
(0 0 0)
(0 0 0)
(0 0 0)
(0 0 0)
(0 0 0)
(0 0 0)
(0 0 0)
(0 0 0)
(0 0 0)
(0 0 0)
(0 0 0)
(0 0 0)
(0 0 0)
(0 0 0)
(0 0 0)
(0 0 0)
(0 0 0)
(0 0 0)
(0 0 0)
(0 0 0)
(0 0 0)
(0 0 0)
(0 0 0)
(0 0 0)
(0 0 0)
(0 0 0)
(0 0 0)
(0 0 0)
(0 0 0)
(0 0 0)
(0 0 0)
(0 0 0)
(0 0 0)
(0 0 0)
(0 0 0)
(0 0 0)
(0 0 0)
(0 0 0)
(0 0 0)
(0 0 0)
(0 0 0)
(0 0 0)
(0 0 0)
(0 0 0)
(0 0 0)
(0 0 0)
(0 0 0)
(0 0 0)
(0 0 0)
(0 0 0)
(0 0 0)
(0 0 0)
(0 0 0)
(0 0 0)
(0 0 0)
(0 0 0)
(0 0 0)
(0 0 0)
(0 0 0)
(0 0 0)
(0 0 0)
(0 0 0)
(0 0 0)
(0 0 0)
(0 0 0)
(0 0 0)
(0 0 0)
(0 0 0)
(0 0 0)
(0 0 0)
(0 0 0)
(0 0 0)
(0 0 0)
(0 0 0)
(0 0 0)
(0 0 0)
(0 0 0)
(0 0 0)
(0 0 0)
(0 0 0)
(0 0 0)
(0 0 0)
(0 0 0)
(0 0 0)
(0 0 0)
(0 0 0)
(0 0 0)
(0 0 0)
(0 0 0)
(0 0 0)
(0 0 0)
(0 0 0)
(0 0 0)
(0 0 0)
(0 0 0)
(0 0 0)
(0 0 0)
(0 0 0)
(0 0 0)
(0 0 0)
(0 0 0)
(0 0 0)
(0 0 0)
(0 0 0)
(0 0 0)
(0 0 0)
(0 0 0)
(0 0 0)
(0 0 0)
(0 0 0)
(0 0 0)
(0 0 0)
(0 0 0)
(0 0 0)
(0 0 0)
(0 0 0)
(0 0 0)
(0 0 0)
(0 0 0)
(0 0 0)
(0 0 0)
(0 0 0)
(0 0 0)
(0 0 0)
(0 0 0)
(0 0 0)
(0 0 0)
(0 0 0)
(0 0 0)
(0 0 0)
(0 0 0)
(0 0 0)
(0 0 0)
(0 0 0)
(0 0 0)
(0 0 0)
(0 0 0)
(0 0 0)
(0 0 0)
(0 0 0)
(0 0 0)
(0 0 0)
(0 0 0)
(0 0 0)
(0 0 0)
(0 0 0)
(0 0 0)
(0 0 0)
(0 0 0)
(0 0 0)
(0 0 0)
(0 0 0)
(0 0 0)
(0 0 0)
(0 0 0)
(0 0 0)
(0 0 0)
(0 0 0)
(0 0 0)
(0 0 0)
(0 0 0)
(0 0 0)
(0 0 0)
(0 0 0)
(0 0 0)
(0 0 0)
(0 0 0)
(0 0 0)
(0 0 0)
(0 0 0)
(0 0 0)
(0 0 0)
(0 0 0)
(0 0 0)
(0 0 0)
(0 0 0)
(0 0 0)
(0 0 0)
(0 0 0)
(0 0 0)
(0 0 0)
(0 0 0)
(0 0 0)
(0 0 0)
(0 0 0)
(0 0 0)
(0 0 0)
(0 0 0)
(0 0 0)
(0 0 0)
(0 0 0)
(0 0 0)
(0 0 0)
(0 0 0)
(0 0 0)
(0 0 0)
(0 0 0)
(0 0 0)
(0 0 0)
(0 0 0)
(0 0 0)
(0 0 0)
(0 0 0)
(0 0 0)
(0 0 0)
(0 0 0)
(0 0 0)
(0 0 0)
(0 0 0)
(0 0 0)
(0 0 0)
(0 0 0)
(0 0 0)
(0 0 0)
(0 0 0)
(0 0 0)
(0 0 0)
(0 0 0)
(0 0 0)
(0 0 0)
(0 0 0)
(0 0 0)
(0 0 0)
(0 0 0)
(0 0 0)
(0 0 0)
(0 0 0)
(0 0 0)
(0 0 0)
(0 0 0)
(0 0 0)
(0 0 0)
(0 0 0)
(0 0 0)
(0 0 0)
(0 0 0)
(0 0 0)
(0 0 0)
(0 0 0)
(0 0 0)
(0 0 0)
(0 0 0)
(0 0 0)
(0 0 0)
(0 0 0)
(0 0 0)
(0 0 0)
(0 0 0)
(0 0 0)
(0 0 0)
(0 0 0)
(0 0 0)
(0 0 0)
(0 0 0)
(0 0 0)
(0 0 0)
(0 0 0)
(0 0 0)
(0 0 0)
(0 0 0)
(0 0 0)
(0 0 0)
(0 0 0)
(0 0 0)
(0 0 0)
(0 0 0)
(0 0 0)
(0 0 0)
(0 0 0)
(0 0 0)
(0 0 0)
(0 0 0)
(0 0 0)
(0 0 0)
(0 0 0)
(0 0 0)
(0 0 0)
(0 0 0)
(0 0 0)
(0 0 0)
(0 0 0)
(0 0 0)
(0 0 0)
(0 0 0)
(0 0 0)
(0 0 0)
(0 0 0)
(0 0 0)
(0 0 0)
(0 0 0)
(0 0 0)
(0 0 0)
(0 0 0)
(0 0 0)
(0 0 0)
(0 0 0)
(0 0 0)
(0 0 0)
(0 0 0)
(0 0 0)
(0 0 0)
(0 0 0)
(0 0 0)
(0 0 0)
(0 0 0)
(0 0 0)
(0 0 0)
(0 0 0)
(0 0 0)
(0 0 0)
(0 0 0)
(0 0 0)
(0 0 0)
(0 0 0)
(0 0 0)
(0 0 0)
(0 0 0)
(0 0 0)
(0 0 0)
(0 0 0)
(0 0 0)
(0 0 0)
(0 0 0)
(0 0 0)
(0 0 0)
(0 0 0)
(0 0 0)
(0 0 0)
(0 0 0)
(0 0 0)
(0 0 0)
(0 0 0)
(0 0 0)
(0 0 0)
(0 0 0)
(0 0 0)
(0 0 0)
(0 0 0)
(0 0 0)
(0 0 0)
(0 0 0)
(0 0 0)
(0 0 0)
(0 0 0)
(0 0 0)
(0 0 0)
(0 0 0)
(0 0 0)
(0 0 0)
(0 0 0)
(0 0 0)
(0 0 0)
(0 0 0)
(0 0 0)
(0 0 0)
(0 0 0)
(0 0 0)
(0 0 0)
(0 0 0)
(0 0 0)
(0 0 0)
(0 0 0)
(0 0 0)
(0 0 0)
(0 0 0)
(0 0 0)
(0 0 0)
(0 0 0)
(0 0 0)
(0 0 0)
(0 0 0)
(0 0 0)
(0 0 0)
(0 0 0)
(0 0 0)
(0 0 0)
(0 0 0)
(0 0 0)
(0 0 0)
(0 0 0)
(0 0 0)
(0 0 0)
(0 0 0)
(0 0 0)
(0 0 0)
(0 0 0)
(0 0 0)
(0 0 0)
(0 0 0)
(0 0 0)
(0 0 0)
(0 0 0)
(0 0 0)
(0 0 0)
(0 0 0)
(0 0 0)
(0 0 0)
(0 0 0)
(0 0 0)
(0 0 0)
(0 0 0)
(0 0 0)
(0 0 0)
(0 0 0)
(0 0 0)
(0 0 0)
(0 0 0)
(0 0 0)
(0 0 0)
(0 0 0)
(0 0 0)
(0 0 0)
(0 0 0)
(0 0 0)
(0 0 0)
(0 0 0)
(0 0 0)
(0 0 0)
(0 0 0)
(0 0 0)
(0 0 0)
(0 0 0)
(0 0 0)
(0 0 0)
(0 0 0)
(0 0 0)
(0 0 0)
(0 0 0)
(0 0 0)
(0 0 0)
(0 0 0)
(0 0 0)
(0 0 0)
(0 0 0)
(0 0 0)
(0 0 0)
(0 0 0)
(0 0 0)
(0 0 0)
(0 0 0)
(0 0 0)
(0 0 0)
(0 0 0)
(0 0 0)
(0 0 0)
(0 0 0)
(0 0 0)
(0 0 0)
(0 0 0)
(0 0 0)
(0 0 0)
(0 0 0)
(0 0 0)
(0 0 0)
(0 0 0)
(0 0 0)
(0 0 0)
(0 0 0)
(0 0 0)
(0 0 0)
(0 0 0)
(0 0 0)
(0 0 0)
(0 0 0)
(0 0 0)
(0 0 0)
(0 0 0)
(0 0 0)
(0 0 0)
(0 0 0)
(0 0 0)
(0 0 0)
(0 0 0)
(0 0 0)
(0 0 0)
(0 0 0)
(0 0 0)
(0 0 0)
(0 0 0)
(0 0 0)
(0 0 0)
(0 0 0)
(0 0 0)
(0 0 0)
(0 0 0)
(0 0 0)
(0 0 0)
(0 0 0)
(0 0 0)
(0 0 0)
(0 0 0)
(0 0 0)
(0 0 0)
(0 0 0)
(0 0 0)
(0 0 0)
(0 0 0)
(0 0 0)
(0 0 0)
(0 0 0)
(0 0 0)
(0 0 0)
(0 0 0)
(0 0 0)
(0 0 0)
(0 0 0)
(0 0 0)