/*--------------------------------*- C++ -*----------------------------------*\
  =========                 |
  \\      /  F ield         | OpenFOAM: The Open Source CFD Toolbox
   \\    /   O peration     | Website:  https://openfoam.org
    \\  /    A nd           | Version:  7
     \\/     M anipulation  |
\*---------------------------------------------------------------------------*/
FoamFile
{
    version     2.0;
    format      ascii;
    class       volVectorField;
    location    "0";
    object      Fc;
}
// * * * * * * * * * * * * * * * * * * * * * * * * * * * * * * * * * * * * * //

dimensions      [1 -2 -2 0 0 0 0];

internalField   nonuniform List<vector> 
58002
(
(0 0 0)
(0 0 0)
(0 0 0)
(0 0 0)
(0 0 0)
(0 0 0)
(0 0 0)
(0 0 0)
(0 0 0)
(0 0 0)
(0 0 0)
(6.6149e-318 -1.56467e-317 0)
(2.69925e-313 -8.56507e-313 0)
(6.19531e-309 -2.96065e-308 0)
(5.88549e-305 -5.65929e-304 0)
(1.94115e-304 -6.20046e-300 0)
(-4.5831e-297 -4.51063e-296 0)
(-4.61199e-293 -2.30998e-292 0)
(-2.51183e-289 -8.55993e-289 0)
(-9.04718e-286 -2.37188e-285 0)
(-2.34808e-282 -5.07279e-282 0)
(-4.72758e-279 -8.79074e-279 0)
(-8.08735e-276 -1.33647e-275 0)
(-1.30121e-272 -1.94916e-272 0)
(-2.20797e-269 -3.0511e-269 0)
(-3.1862e-266 -4.14267e-266 0)
(-4.8577e-264 -5.97354e-264 0)
(5.61424e-262 6.81644e-262 0)
(7.28148e-259 8.55083e-259 0)
(3.00081e-256 3.54128e-256 0)
(5.6272e-254 6.53795e-254 0)
(3.28156e-252 3.78272e-252 0)
(-7.06893e-248 -8.05889e-248 0)
(-2.37061e-246 -2.66292e-246 0)
(4.30766e-243 4.76402e-243 0)
(3.52553e-241 3.83512e-241 0)
(-6.54506e-237 -7.00072e-237 0)
(-2.70048e-235 -2.83998e-235 0)
(1.56934e-232 1.62253e-232 0)
(1.52917e-230 1.55423e-230 0)
(-2.3708e-226 -2.36872e-226 0)
(-1.71411e-224 -1.68342e-224 0)
(1.72633e-220 1.66649e-220 0)
(1.17281e-218 1.11273e-218 0)
(-7.99687e-215 -7.45669e-215 0)
(-4.68916e-213 -4.2967e-213 0)
(1.7991e-209 1.61987e-209 0)
(2.87941e-208 2.54719e-208 0)
(3.84903e-207 3.34501e-207 0)
(-1.67568e-206 -1.43045e-206 0)
(-6.33479e-203 -5.31111e-203 0)
(-1.26881e-198 -1.04466e-198 0)
(-8.61848e-197 -6.96733e-197 0)
(7.84279e-194 6.22463e-194 0)
(3.29607e-192 2.56787e-192 0)
(1.25488e-188 9.59502e-189 0)
(1.31265e-186 9.84863e-187 0)
(-8.16496e-184 -6.0103e-184 0)
(-9.30208e-182 -6.7166e-182 0)
(-5.11117e-179 -3.61948e-179 0)
(-5.60797e-177 -3.89405e-177 0)
(9.63407e-176 6.55839e-176 0)
(2.38766e-173 1.59313e-173 0)
(-1.27691e-170 -8.34896e-171 0)
(-1.65067e-168 -1.05733e-168 0)
(-3.38575e-166 -2.12404e-166 0)
(-8.39476e-164 -5.15664e-164 0)
(5.83326e-161 3.50767e-161 0)
(1.82004e-159 1.07116e-159 0)
(2.12127e-158 1.22166e-158 0)
(1.51518e-157 8.53718e-158 0)
(8.11113e-157 4.47012e-157 0)
(3.70015e-156 1.99399e-156 0)
(1.12942e-155 5.94979e-156 0)
(2.25607e-155 1.16159e-155 0)
(3.17955e-155 1.59987e-155 0)
(3.36369e-155 1.65411e-155 0)
(3.31607e-155 1.59379e-155 0)
(2.73202e-155 1.28345e-155 0)
(1.7024e-155 7.81835e-156 0)
(4.5705e-156 2.05286e-156 0)
(-8.15501e-156 -3.58521e-156 0)
(-2.0264e-155 -8.73065e-156 0)
(-3.11757e-155 -1.31856e-155 0)
(-3.75722e-155 -1.56358e-155 0)
(-4.02079e-155 -1.65187e-155 0)
(-4.26266e-155 -1.73717e-155 0)
(-4.35899e-155 -1.77424e-155 0)
(-4.26295e-155 -1.74964e-155 0)
(-3.99597e-155 -1.67534e-155 0)
(-3.58692e-155 -1.56311e-155 0)
(-3.27035e-155 -1.51569e-155 0)
(-2.29563e-155 -1.15972e-155 0)
(-2.13479e-154 -1.17335e-154 0)
(7.48776e-140 3.81238e-140 0)
(0 0 0)
(0 0 0)
(0 0 0)
(0 0 0)
(0 0 0)
(0 0 0)
(0 0 0)
(0 0 0)
(0 0 0)
(0 0 0)
(0 0 0)
(-1.80056e-315 4.28923e-315 0)
(-8.02616e-311 2.57302e-310 0)
(-1.71811e-306 8.34793e-306 0)
(-1.46954e-302 1.4651e-301 0)
(5.69195e-300 1.4418e-297 0)
(9.63945e-295 9.09678e-294 0)
(7.58671e-291 3.71029e-290 0)
(2.93562e-287 9.82283e-287 0)
(6.89249e-284 1.77831e-283 0)
(1.03787e-280 2.20887e-280 0)
(1.10607e-277 2.02656e-277 0)
(8.94809e-275 1.45696e-274 0)
(5.27608e-272 7.78687e-272 0)
(1.61525e-269 2.19936e-269 0)
(-1.64061e-266 -2.10147e-266 0)
(1.48058e-264 1.79789e-264 0)
(1.81743e-261 2.1656e-261 0)
(9.44782e-259 1.09504e-258 0)
(3.22068e-256 3.71928e-256 0)
(5.76804e-254 6.58071e-254 0)
(3.31817e-252 3.74335e-252 0)
(-7.09146e-248 -7.90731e-248 0)
(-2.38956e-246 -2.62745e-246 0)
(4.28398e-243 4.63859e-243 0)
(3.53698e-241 3.76822e-241 0)
(-6.51222e-237 -6.82271e-237 0)
(-2.69773e-235 -2.77923e-235 0)
(1.55998e-232 1.57997e-232 0)
(1.526e-230 1.51927e-230 0)
(-2.36359e-226 -2.31291e-226 0)
(-1.71085e-224 -1.6454e-224 0)
(1.71666e-220 1.62251e-220 0)
(1.17072e-218 1.0873e-218 0)
(-7.95601e-215 -7.26008e-215 0)
(-4.68152e-213 -4.19691e-213 0)
(1.79724e-209 1.58271e-209 0)
(2.88015e-208 2.49118e-208 0)
(3.85373e-207 3.27344e-207 0)
(-1.67447e-206 -1.39658e-206 0)
(-6.32039e-203 -5.17521e-203 0)
(-1.26739e-198 -1.01865e-198 0)
(-8.6272e-197 -6.80519e-197 0)
(7.8334e-194 6.06328e-194 0)
(3.29033e-192 2.49861e-192 0)
(1.25117e-188 9.3195e-189 0)
(1.31491e-186 9.60495e-187 0)
(-8.1456e-184 -5.83373e-184 0)
(-9.27896e-182 -6.51399e-182 0)
(-5.10182e-179 -3.50996e-179 0)
(-5.60872e-177 -3.78064e-177 0)
(9.6102e-176 6.34531e-176 0)
(2.3876e-173 1.54375e-173 0)
(-1.27323e-170 -8.05911e-171 0)
(-1.64576e-168 -1.01944e-168 0)
(-3.3768e-166 -2.04625e-166 0)
(-8.39465e-164 -4.97461e-164 0)
(5.81268e-161 3.36736e-161 0)
(1.81382e-159 1.0269e-159 0)
(2.11464e-158 1.16967e-158 0)
(1.51091e-157 8.16229e-158 0)
(8.0916e-157 4.2675e-157 0)
(3.69388e-156 1.90099e-156 0)
(1.12932e-155 5.66828e-156 0)
(2.25891e-155 1.10528e-155 0)
(3.18632e-155 1.51934e-155 0)
(3.37255e-155 1.56673e-155 0)
(3.32871e-155 1.50608e-155 0)
(2.74831e-155 1.21062e-155 0)
(1.71708e-155 7.36094e-156 0)
(4.6687e-156 1.94742e-156 0)
(-8.12393e-156 -3.29763e-156 0)
(-2.0321e-155 -8.02972e-156 0)
(-3.13516e-155 -1.20659e-155 0)
(-3.78812e-155 -1.42125e-155 0)
(-4.06132e-155 -1.48796e-155 0)
(-4.31804e-155 -1.5488e-155 0)
(-4.43608e-155 -1.56352e-155 0)
(-4.36469e-155 -1.52028e-155 0)
(-4.12544e-155 -1.43139e-155 0)
(-3.7495e-155 -1.30802e-155 0)
(-3.47819e-155 -1.23218e-155 0)
(-2.50853e-155 -9.05891e-156 0)
(-1.59354e-154 -5.63448e-155 0)
(4.21438e-140 1.155e-140 0)
(0 0 0)
(0 0 0)
(0 0 0)
(0 0 0)
(0 0 0)
(0 0 0)
(0 0 0)
(0 0 0)
(0 0 0)
(0 0 0)
(0 0 0)
(2.37559e-315 -5.68847e-315 0)
(1.49576e-310 -4.83508e-310 0)
(1.1563e-307 -5.70153e-307 0)
(-6.48222e-303 6.69429e-302 0)
(8.65152e-300 1.09217e-297 0)
(1.01581e-294 9.18952e-294 0)
(1.06234e-290 5.06511e-290 0)
(5.86713e-287 1.92406e-286 0)
(1.9975e-283 5.06183e-283 0)
(4.54891e-280 9.51731e-280 0)
(7.20491e-277 1.2979e-276 0)
(8.25982e-274 1.32209e-273 0)
(6.86143e-271 9.95365e-271 0)
(4.29099e-268 5.74279e-268 0)
(1.76158e-265 2.21739e-265 0)
(7.5109e-263 8.98003e-263 0)
(1.77319e-260 2.07089e-260 0)
(3.52595e-258 4.01778e-258 0)
(5.27061e-256 5.9483e-256 0)
(6.16776e-254 6.89463e-254 0)
(3.31697e-252 3.66373e-252 0)
(-7.30388e-248 -7.96455e-248 0)
(-1.17389e-246 -1.26283e-246 0)
(4.94098e-243 5.23436e-243 0)
(1.13855e-241 1.1871e-241 0)
(-6.58801e-237 -6.75546e-237 0)
(-2.75107e-235 -2.77411e-235 0)
(2.56989e-232 2.54762e-232 0)
(2.63212e-230 2.56468e-230 0)
(-2.34541e-226 -2.24595e-226 0)
(-1.71901e-224 -1.61758e-224 0)
(1.72584e-220 1.59568e-220 0)
(1.18157e-218 1.07325e-218 0)
(-7.96789e-215 -7.10918e-215 0)
(-4.71059e-213 -4.12788e-213 0)
(1.78614e-209 1.53704e-209 0)
(2.85097e-208 2.40886e-208 0)
(3.84273e-207 3.18739e-207 0)
(-1.93482e-206 -1.57517e-206 0)
(-6.25699e-203 -4.99876e-203 0)
(-1.26079e-198 -9.88254e-199 0)
(-8.61979e-197 -6.62782e-197 0)
(7.78144e-194 5.86806e-194 0)
(3.27662e-192 2.42284e-192 0)
(1.26508e-188 9.17017e-189 0)
(1.35533e-186 9.62825e-187 0)
(-8.08825e-184 -5.6297e-184 0)
(-9.17403e-182 -6.2546e-182 0)
(-5.06578e-179 -3.38201e-179 0)
(-5.60154e-177 -3.661e-177 0)
(9.53893e-176 6.10132e-176 0)
(2.38492e-173 1.49239e-173 0)
(-1.2622e-170 -7.72424e-171 0)
(-1.63127e-168 -9.75855e-169 0)
(-3.34667e-166 -1.95615e-166 0)
(-8.37619e-164 -4.78149e-164 0)
(5.7537e-161 3.20623e-161 0)
(1.79584e-159 9.76476e-160 0)
(2.09531e-158 1.11122e-158 0)
(1.4984e-157 7.74691e-158 0)
(8.03021e-157 4.045e-157 0)
(3.67027e-156 1.80001e-156 0)
(1.12616e-155 5.37315e-156 0)
(2.25892e-155 1.04777e-155 0)
(3.19709e-155 1.44071e-155 0)
(3.38961e-155 1.48304e-155 0)
(3.34996e-155 1.42202e-155 0)
(2.77254e-155 1.14077e-155 0)
(1.74192e-155 6.93993e-156 0)
(4.88195e-156 1.88163e-156 0)
(-7.9846e-156 -2.97499e-156 0)
(-2.02755e-155 -7.29707e-156 0)
(-3.14244e-155 -1.0913e-155 0)
(-3.81794e-155 -1.27823e-155 0)
(-4.09954e-155 -1.32258e-155 0)
(-4.3679e-155 -1.35723e-155 0)
(-4.50378e-155 -1.3465e-155 0)
(-4.45757e-155 -1.28168e-155 0)
(-4.25748e-155 -1.1778e-155 0)
(-3.89019e-155 -1.03264e-155 0)
(-3.77482e-155 -9.52183e-156 0)
(-2.5206e-155 -5.90803e-156 0)
(-4.65882e-155 -9.3883e-156 0)
(8.73969e-141 1.09411e-141 0)
(0 0 0)
(0 0 0)
(0 0 0)
(0 0 0)
(0 0 0)
(0 0 0)
(0 0 0)
(0 0 0)
(0 0 0)
(0 0 0)
(0 0 0)
(1.34471e-314 -3.23675e-314 0)
(5.40604e-310 -1.76217e-309 0)
(9.90607e-306 -4.95789e-305 0)
(6.82263e-302 -7.30719e-301 0)
(-6.92812e-299 -5.82708e-297 0)
(-3.12936e-294 -2.71849e-293 0)
(-1.55734e-290 -7.24329e-290 0)
(-2.66444e-287 -8.56646e-287 0)
(3.38235e-284 8.42032e-284 0)
(2.5818e-280 5.31111e-280 0)
(6.0402e-277 1.06997e-276 0)
(8.51563e-274 1.34019e-273 0)
(8.43612e-271 1.20327e-270 0)
(6.19753e-268 8.15739e-268 0)
(2.95792e-265 3.66287e-265 0)
(1.20684e-262 1.42281e-262 0)
(2.68067e-260 3.0796e-260 0)
(4.41589e-258 4.96119e-258 0)
(5.22944e-256 5.78966e-256 0)
(3.45457e-254 3.78394e-254 0)
(-6.0438e-252 -6.54193e-252 0)
(-9.15119e-249 -9.77396e-249 0)
(6.72768e-245 7.08877e-245 0)
(1.25557e-242 1.30253e-242 0)
(-1.28203e-240 -1.30923e-240 0)
(-9.51763e-237 -9.56012e-237 0)
(-3.82373e-235 -3.7769e-235 0)
(2.01006e-231 1.95177e-231 0)
(1.91898e-229 1.83126e-229 0)
(-2.47906e-226 -2.32469e-226 0)
(-1.82358e-224 -1.68011e-224 0)
(1.97287e-220 1.78558e-220 0)
(1.35721e-218 1.20648e-218 0)
(-8.57734e-215 -7.48755e-215 0)
(-5.08482e-213 -4.35825e-213 0)
(1.76036e-209 1.48121e-209 0)
(2.82327e-208 2.33167e-208 0)
(6.22493e-207 5.04502e-207 0)
(-1.17103e-205 -9.31122e-206 0)
(-1.12243e-202 -8.75422e-203 0)
(-1.22531e-198 -9.3719e-199 0)
(-8.42262e-197 -6.31623e-197 0)
(7.41956e-194 5.45402e-194 0)
(3.20493e-192 2.30873e-192 0)
(1.43662e-188 1.01388e-188 0)
(1.87923e-186 1.29892e-186 0)
(-7.9701e-184 -5.39368e-184 0)
(-9.13003e-182 -6.04745e-182 0)
(-4.94008e-179 -3.20161e-179 0)
(-5.55666e-177 -3.52238e-177 0)
(9.30847e-176 5.76938e-176 0)
(2.36658e-173 1.43359e-173 0)
(-1.23699e-170 -7.32016e-171 0)
(-1.59847e-168 -9.23603e-169 0)
(-3.27868e-166 -1.84865e-166 0)
(-8.29253e-164 -4.55998e-164 0)
(5.62774e-161 3.01633e-161 0)
(1.75736e-159 9.17556e-160 0)
(2.05296e-158 1.04359e-158 0)
(1.47023e-157 7.27161e-158 0)
(7.88959e-157 3.79362e-157 0)
(3.61163e-156 1.68671e-156 0)
(1.11372e-155 5.0465e-156 0)
(2.24297e-155 9.85067e-156 0)
(3.19302e-155 1.35781e-155 0)
(3.39113e-155 1.39485e-155 0)
(3.35644e-155 1.33371e-155 0)
(2.78824e-155 1.06862e-155 0)
(1.76536e-155 6.5142e-156 0)
(5.16177e-156 1.83054e-156 0)
(-7.69658e-156 -2.61842e-156 0)
(-2.00002e-155 -6.51268e-156 0)
(-3.12143e-155 -9.69961e-156 0)
(-3.82132e-155 -1.12925e-155 0)
(-4.10781e-155 -1.15047e-155 0)
(-4.38227e-155 -1.15777e-155 0)
(-4.52891e-155 -1.11967e-155 0)
(-4.50633e-155 -1.03116e-155 0)
(-4.29198e-155 -8.9675e-156 0)
(-4.22498e-155 -7.85674e-156 0)
(-2.07684e-155 -3.25644e-156 0)
(-2.88783e-153 -3.42876e-154 0)
(9.5926e-148 6.61888e-149 0)
(2.60097e-123 2.92391e-125 0)
(0 0 0)
(0 0 0)
(0 0 0)
(0 0 0)
(0 0 0)
(0 0 0)
(0 0 0)
(0 0 0)
(0 0 0)
(0 0 0)
(-1.14081e-317 2.15806e-317 0)
(5.6042e-314 -1.356e-313 0)
(6.10796e-309 -2.00777e-308 0)
(1.30981e-304 -6.65519e-304 0)
(9.79907e-301 -1.08985e-299 0)
(-1.54035e-297 -9.71687e-296 0)
(-6.43798e-293 -5.3791e-292 0)
(-4.26444e-289 -1.93597e-288 0)
(-1.49078e-285 -4.7007e-285 0)
(-3.28088e-282 -8.02606e-282 0)
(-4.92869e-279 -9.9712e-279 0)
(-5.31928e-276 -9.26824e-276 0)
(-4.27136e-273 -6.61204e-273 0)
(-2.62314e-270 -3.68092e-270 0)
(-1.28273e-267 -1.66208e-267 0)
(-4.87184e-265 -5.94276e-265 0)
(-1.38349e-262 -1.61022e-262 0)
(-2.92386e-260 -3.30995e-260 0)
(-5.02697e-258 -5.57187e-258 0)
(-7.99311e-256 -8.70329e-256 0)
(-3.50293e-253 -3.76624e-253 0)
(-3.70806e-252 -3.9411e-252 0)
(3.55055e-247 3.7224e-247 0)
(1.3533e-243 1.39948e-243 0)
(5.41512e-241 5.51184e-241 0)
(-4.48789e-239 -4.49723e-239 0)
(-5.38465e-236 -5.30792e-236 0)
(-1.79927e-233 -1.74399e-233 0)
(1.96809e-230 1.87507e-230 0)
(6.0505e-228 5.66458e-228 0)
(-5.10136e-226 -4.69255e-226 0)
(-3.14077e-224 -2.83804e-224 0)
(5.10856e-220 4.5337e-220 0)
(3.42826e-218 2.98747e-218 0)
(-1.54111e-214 -1.31843e-214 0)
(-8.90529e-213 -7.47809e-213 0)
(1.7363e-209 1.43089e-209 0)
(5.16457e-208 4.176e-208 0)
(6.44267e-207 5.11015e-207 0)
(-9.34488e-204 -7.26889e-204 0)
(-6.0222e-202 -4.59268e-202 0)
(-1.00418e-198 -7.50648e-199 0)
(-6.74797e-197 -4.94313e-197 0)
(4.38767e-194 3.14885e-194 0)
(2.32901e-192 1.637e-192 0)
(2.69165e-188 1.85229e-188 0)
(6.29668e-186 4.24094e-186 0)
(-7.61303e-184 -5.01656e-184 0)
(-9.65906e-182 -6.22468e-182 0)
(-4.84276e-179 -3.051e-179 0)
(-5.48826e-177 -3.37893e-177 0)
(8.91433e-176 5.36096e-176 0)
(2.28082e-173 1.3392e-173 0)
(-1.20486e-170 -6.90331e-171 0)
(-1.55678e-168 -8.69843e-169 0)
(-3.19001e-166 -1.737e-166 0)
(-8.19239e-164 -4.34411e-164 0)
(5.46474e-161 2.81987e-161 0)
(1.70846e-159 8.57289e-160 0)
(1.99963e-158 9.75036e-159 0)
(1.43445e-157 6.79117e-158 0)
(7.70601e-157 3.53864e-157 0)
(3.5372e-156 1.57354e-156 0)
(1.09952e-155 4.73188e-156 0)
(2.22579e-155 9.25376e-156 0)
(3.18686e-155 1.27819e-155 0)
(3.39324e-155 1.31095e-155 0)
(3.36954e-155 1.2516e-155 0)
(2.81859e-155 1.00424e-155 0)
(1.7951e-155 6.11831e-156 0)
(5.43189e-156 1.76591e-156 0)
(-7.44752e-156 -2.30199e-156 0)
(-1.97705e-155 -5.78644e-156 0)
(-3.10224e-155 -8.54969e-156 0)
(-3.81932e-155 -9.84239e-156 0)
(-4.10846e-155 -9.82119e-156 0)
(-4.38796e-155 -9.62596e-156 0)
(-4.54961e-155 -8.9914e-156 0)
(-4.52182e-155 -7.8138e-156 0)
(-4.4359e-155 -6.4071e-156 0)
(-3.75806e-155 -4.1596e-156 0)
(-1.20109e-152 -8.06135e-154 0)
(9.40342e-138 9.27433e-140 0)
(-1.02011e-131 6.15643e-133 0)
(1.57364e-122 -1.78969e-123 0)
(0 0 0)
(0 0 0)
(0 0 0)
(0 0 0)
(0 0 0)
(0 0 0)
(0 0 0)
(0 0 0)
(0 0 0)
(0 0 0)
(3.24908e-317 -6.16706e-317 0)
(2.65821e-312 -6.46561e-312 0)
(1.06057e-307 -3.51582e-307 0)
(1.94771e-303 -1.00489e-302 0)
(1.31661e-299 -1.52277e-298 0)
(-2.53704e-296 -1.28069e-294 0)
(-8.38147e-292 -6.74541e-291 0)
(-5.26515e-288 -2.3344e-287 0)
(-1.79159e-284 -5.54227e-284 0)
(-3.93334e-281 -9.45787e-281 0)
(-6.06619e-278 -1.20725e-277 0)
(-6.94276e-275 -1.19025e-274 0)
(-6.11597e-272 -9.31624e-272 0)
(-4.23236e-269 -5.84639e-269 0)
(-2.36248e-266 -3.0156e-266 0)
(-1.00895e-263 -1.2129e-263 0)
(-3.42394e-261 -3.93109e-261 0)
(-8.68446e-259 -9.66926e-259 0)
(-1.79098e-256 -1.95008e-256 0)
(-3.20759e-254 -3.42334e-254 0)
(-9.15908e-252 -9.64218e-252 0)
(-7.90317e-249 -8.22791e-249 0)
(1.03642e-245 1.06354e-245 0)
(1.85522e-242 1.87753e-242 0)
(-4.93127e-240 -4.91135e-240 0)
(-5.65712e-238 -5.54696e-238 0)
(-8.70167e-235 -8.39354e-235 0)
(2.38978e-233 2.26631e-233 0)
(1.29897e-229 1.21068e-229 0)
(2.30914e-227 2.11461e-227 0)
(-3.13666e-225 -2.82186e-225 0)
(-1.22113e-223 -1.07897e-223 0)
(2.72047e-219 2.36024e-219 0)
(1.95061e-217 1.66127e-217 0)
(-6.12225e-214 -5.11738e-214 0)
(-4.32307e-212 -3.54579e-212 0)
(1.60781e-209 1.29374e-209 0)
(2.08753e-207 1.64752e-207 0)
(-2.26861e-206 -1.75557e-206 0)
(-4.30712e-202 -3.26723e-202 0)
(-4.14009e-202 -3.07759e-202 0)
(5.96585e-199 4.34477e-199 0)
(6.66842e-197 4.75652e-197 0)
(-1.98988e-193 -1.38974e-193 0)
(-1.45772e-191 -9.96486e-192 0)
(9.47257e-188 6.33565e-188 0)
(2.78261e-185 1.82022e-185 0)
(-6.97483e-184 -4.46035e-184 0)
(-1.51605e-181 -9.47376e-182 0)
(-5.00117e-179 -3.05256e-179 0)
(-5.24388e-177 -3.12483e-177 0)
(8.95576e-176 5.2077e-176 0)
(1.98217e-173 1.12412e-173 0)
(-1.16933e-170 -6.46343e-171 0)
(-1.50949e-168 -8.12629e-169 0)
(-3.08269e-166 -1.615e-166 0)
(-8.07236e-164 -4.11195e-164 0)
(5.27807e-161 2.61184e-161 0)
(1.65134e-159 7.93155e-160 0)
(1.93821e-158 9.02777e-159 0)
(1.39481e-157 6.29375e-158 0)
(7.50629e-157 3.27707e-157 0)
(3.45171e-156 1.45575e-156 0)
(1.08138e-155 4.39811e-156 0)
(2.20942e-155 8.6499e-156 0)
(3.18915e-155 1.19963e-155 0)
(3.4036e-155 1.22755e-155 0)
(3.37662e-155 1.16462e-155 0)
(2.81027e-155 9.23941e-156 0)
(1.93378e-155 6.03738e-156 0)
(1.67824e-155 4.95414e-156 0)
(2.69657e-155 7.48851e-156 0)
(8.44664e-155 2.19246e-155 0)
(2.16347e-154 5.20246e-155 0)
(4.01325e-154 8.83301e-155 0)
(5.91281e-154 1.1729e-154 0)
(7.1621e-154 1.25396e-154 0)
(7.83991e-154 1.16899e-154 0)
(8.61862e-154 1.02246e-154 0)
(8.69685e-154 7.18052e-155 0)
(2.50978e-153 9.84094e-155 0)
(-5.51686e-137 9.75506e-139 0)
(1.29967e-134 -1.22574e-135 0)
(-1.85045e-132 3.65377e-133 0)
(-2.96929e-122 8.96586e-123 0)
(1.98368e-38 -1.0016e-38 0)
(-3.40327e-50 1.83754e-50 0)
(-2.55889e-50 1.26192e-50 0)
(-1.97122e-36 8.90944e-37 0)
(-5.41653e-32 2.29856e-32 0)
(-5.96961e-29 2.44248e-29 0)
(-1.50035e-26 6.04843e-27 0)
(-1.78816e-24 7.223e-25 0)
(-1.10335e-22 4.52561e-23 0)
(-5.5514e-21 2.34049e-21 0)
(-2.31073e-19 1.0137e-19 0)
(-1.01109e-17 4.67109e-18 0)
(-4.60745e-16 2.26744e-16 0)
(-2.59923e-14 1.37833e-14 0)
(-1.56602e-12 9.05596e-13 0)
(-9.85425e-11 6.28923e-11 0)
(-4.84132e-09 3.44788e-09 0)
(-1.82779e-07 1.46559e-07 0)
(-0.000720434 0.000654387 0)
(1.12643e-38 -3.09329e-39 0)
(-3.54412e-50 1.242e-50 0)
(-2.58301e-50 9.18887e-51 0)
(-2.1663e-36 7.57269e-37 0)
(-5.79543e-32 1.99899e-32 0)
(-6.24403e-29 2.14908e-29 0)
(-1.54782e-26 5.40158e-27 0)
(-1.83068e-24 6.55846e-25 0)
(-1.12147e-22 4.15823e-23 0)
(-5.6012e-21 2.1691e-21 0)
(-2.31691e-19 9.46877e-20 0)
(-1.00861e-17 4.39132e-18 0)
(-4.57356e-16 2.13963e-16 0)
(-2.56756e-14 1.30246e-14 0)
(-1.54033e-12 8.55592e-13 0)
(-9.66264e-11 5.933e-11 0)
(-4.74233e-09 3.2451e-09 0)
(-1.79175e-07 1.37489e-07 0)
(-0.000707269 0.000610993 0)
(5.20006e-39 -6.57445e-40 0)
(-3.50525e-50 7.08611e-51 0)
(-2.60624e-50 6.10631e-51 0)
(-2.51047e-36 6.33502e-37 0)
(-6.54315e-32 1.74901e-32 0)
(-6.7459e-29 1.89675e-29 0)
(-1.63115e-26 4.82776e-27 0)
(-1.90784e-24 5.96085e-25 0)
(-1.15465e-22 3.8215e-23 0)
(-5.69032e-21 2.00648e-21 0)
(-2.32761e-19 8.8011e-20 0)
(-1.00508e-17 4.09797e-18 0)
(-4.52713e-16 2.00151e-16 0)
(-2.5217e-14 1.21724e-14 0)
(-1.50263e-12 7.97919e-13 0)
(-9.3814e-11 5.51793e-11 0)
(-4.60019e-09 3.01327e-09 0)
(-1.74236e-07 1.27595e-07 0)
(-0.000695526 0.000570671 0)
(-1.14214e-22 1.3686e-24 0)
(1.9835e-38 -1.42797e-39 0)
(-3.0962e-38 3.8139e-39 0)
(-3.37473e-36 5.44656e-37 0)
(-7.75269e-32 1.4959e-32 0)
(-7.54039e-29 1.65944e-29 0)
(-1.75279e-26 4.27806e-27 0)
(-2.00995e-24 5.3707e-25 0)
(-1.1963e-22 3.48784e-23 0)
(-5.78494e-21 1.84042e-21 0)
(-2.33534e-19 8.1097e-20 0)
(-1.00201e-17 3.80105e-18 0)
(-4.49497e-16 1.86762e-16 0)
(-2.49889e-14 1.14238e-14 0)
(-1.48553e-12 7.50947e-13 0)
(-9.23972e-11 5.1859e-11 0)
(-4.5185e-09 2.82394e-09 0)
(-1.71486e-07 1.19564e-07 0)
(-0.000696792 0.000542369 0)
(-3.46331e-21 -3.90245e-22 0)
(1.22198e-28 6.70855e-30 0)
(4.38894e-35 -8.03343e-37 0)
(-1.57294e-35 1.20269e-36 0)
(-9.64341e-32 1.1824e-32 0)
(-8.76373e-29 1.41013e-29 0)
(-1.92364e-26 3.71982e-27 0)
(-2.11529e-24 4.72012e-25 0)
(-1.23188e-22 3.11684e-23 0)
(-5.8973e-21 1.67465e-21 0)
(-2.37688e-19 7.51584e-20 0)
(-1.03034e-17 3.61157e-18 0)
(-4.73186e-16 1.83753e-16 0)
(-2.68905e-14 1.1589e-14 0)
(-1.60143e-12 7.67488e-13 0)
(-9.77702e-11 5.21706e-11 0)
(-4.7028e-09 2.79564e-09 0)
(-1.71791e-07 1.13787e-07 0)
(-0.000759488 0.000560209 0)
(-5.28212e-21 -1.57479e-21 0)
(3.36534e-27 6.34896e-28 0)
(2.12017e-28 1.74329e-29 0)
(-1.36085e-31 -4.84787e-34 0)
(-4.06058e-32 2.26818e-33 0)
(-9.79624e-29 1.01599e-29 0)
(-2.07646e-26 2.98924e-27 0)
(-2.23299e-24 4.0226e-25 0)
(-1.30428e-22 2.805e-23 0)
(-6.44544e-21 1.6098e-21 0)
(-2.79951e-19 7.97133e-20 0)
(-1.41317e-17 4.53871e-18 0)
(-7.59047e-16 2.73704e-16 0)
(-4.66747e-14 1.88614e-14 0)
(-2.67944e-12 1.21169e-12 0)
(-1.46983e-10 7.42597e-11 0)
(-6.44177e-09 3.63025e-09 0)
(-3.33262e-06 2.09193e-06 0)
(-0.00101415 0.000707874 0)
(-0.00311988 0.00321337 0)
(-0.00542225 0.00631626 0)
(-0.00635501 0.00833404 0)
(-0.00582722 0.00854396 0)
(-0.00408351 0.00663867 0)
(-0.00145495 0.00259923 0)
(-0.000241208 0.000469206 0)
(-1.78305e-05 3.7427e-05 0)
(2.7633e-08 -6.20408e-08 0)
(2.68924e-09 -6.40326e-09 0)
(4.85482e-11 -1.21587e-10 0)
(-1.35284e-13 3.53567e-13 0)
(-5.42217e-14 1.4677e-13 0)
(-1.29072e-12 3.59294e-12 0)
(-1.41359e-11 4.01983e-11 0)
(-1.19923e-10 3.46224e-10 0)
(-8.04651e-10 2.34488e-09 0)
(-4.59631e-09 1.34477e-08 0)
(-2.33365e-08 6.82074e-08 0)
(-1.05935e-07 3.07875e-07 0)
(-4.35612e-07 1.2534e-06 0)
(-1.63557e-06 4.6404e-06 0)
(-5.64823e-06 1.57416e-05 0)
(-1.89674e-05 5.17421e-05 0)
(-5.73639e-05 0.000152655 0)
(-0.000163146 0.00042218 0)
(-0.000440718 0.00110559 0)
(-0.00113775 0.00275869 0)
(-0.0028159 0.00658012 0)
(-0.00668719 0.0150166 0)
(-0.0152506 0.0328152 0)
(-0.0335222 0.0689143 0)
(-0.0714862 0.139984 0)
(-0.148902 0.276868 0)
(-0.304059 0.535058 0)
(-0.608559 1.00994 0)
(-1.19072 1.85681 0)
(-2.26866 3.31202 0)
(-4.18347 5.69822 0)
(-7.40267 9.38207 0)
(-12.4405 14.6507 0)
(-19.6378 21.4998 0)
(-28.8015 29.3888 0)
(-38.9291 37.1733 0)
(-48.5546 43.5887 0)
(-56.7585 48.1187 0)
(-63.3593 50.9459 0)
(-68.2029 52.2149 0)
(-71.3994 52.218 0)
(-73.1693 51.2614 0)
(-73.7627 49.614 0)
(-73.4135 47.49 0)
(-72.3216 45.0485 0)
(-70.6543 42.408 0)
(-68.5516 39.6563 0)
(-66.1305 36.8583 0)
(-63.4813 34.0582 0)
(-60.6651 31.2796 0)
(-57.7373 28.5425 0)
(-54.7305 25.8537 0)
(-51.6593 23.2098 0)
(-48.5338 20.606 0)
(-45.3598 18.0349 0)
(-42.1451 15.4915 0)
(-38.8975 12.9707 0)
(-35.6213 10.4655 0)
(-32.3235 7.97037 0)
(-29.0099 5.47922 0)
(-25.6867 2.9856 0)
(-22.3622 0.483881 0)
(-19.0414 -2.03443 0)
(-15.7331 -4.57596 0)
(-12.4463 -7.14838 0)
(-9.19069 -9.76018 0)
(-5.97836 -12.4192 0)
(-2.82026 -15.1366 0)
(0.267298 -17.9218 0)
(3.26618 -20.7855 0)
(6.15502 -23.739 0)
(8.90683 -26.7928 0)
(11.4919 -29.9603 0)
(13.8708 -33.252 0)
(15.9958 -36.6764 0)
(17.8078 -40.2383 0)
(19.2314 -43.9321 0)
(20.1749 -47.7427 0)
(20.5229 -51.6289 0)
(20.1374 -55.514 0)
(18.8588 -59.2692 0)
(16.5214 -62.6871 0)
(12.9823 -65.4571 0)
(8.19774 -67.2119 0)
(2.30497 -67.6562 0)
(-4.36793 -66.5868 0)
(-11.3225 -63.9907 0)
(-17.9082 -59.7233 0)
(-22.5459 -51.6471 0)
(-0.00310654 0.00302055 0)
(-0.00545421 0.00595113 0)
(-0.00645611 0.00786968 0)
(-0.00598329 0.00809575 0)
(-0.0042224 0.00629361 0)
(-0.00151155 0.00246173 0)
(-0.000251525 0.000443903 0)
(-1.86851e-05 3.54447e-05 0)
(2.94469e-08 -5.95647e-08 0)
(2.85061e-09 -6.10117e-09 0)
(5.16058e-11 -1.15991e-10 0)
(-1.46647e-13 3.43638e-13 0)
(-5.88568e-14 1.42798e-13 0)
(-1.41034e-12 3.51981e-12 0)
(-1.5373e-11 3.92256e-11 0)
(-1.29525e-10 3.3597e-10 0)
(-8.60944e-10 2.25807e-09 0)
(-4.85909e-09 1.28223e-08 0)
(-2.43075e-08 6.42341e-08 0)
(-1.08382e-07 2.85558e-07 0)
(-4.3634e-07 1.1415e-06 0)
(-1.59867e-06 4.13655e-06 0)
(-5.4239e-06 1.383e-05 0)
(-1.75526e-05 4.39517e-05 0)
(-5.11441e-05 0.000125349 0)
(-0.000139748 0.000334186 0)
(-0.000361849 0.000841725 0)
(-0.000893335 0.00201547 0)
(-0.00210966 0.00460298 0)
(-0.00477041 0.0100371 0)
(-0.0103396 0.0209195 0)
(-0.0215636 0.041833 0)
(-0.0435645 0.0808015 0)
(-0.0858715 0.151822 0)
(-0.165924 0.27879 0)
(-0.314813 0.501162 0)
(-0.586626 0.88217 0)
(-1.07338 1.52073 0)
(-1.92828 2.5686 0)
(-3.3946 4.24769 0)
(-5.82928 6.85661 0)
(-9.68145 10.7313 0)
(-15.37 16.12 0)
(-23.0255 22.961 0)
(-32.1359 30.6136 0)
(-41.496 37.9213 0)
(-49.9761 43.9716 0)
(-57.043 48.4672 0)
(-62.468 51.3855 0)
(-66.2841 52.9033 0)
(-68.6588 53.2707 0)
(-69.8116 52.7433 0)
(-69.9569 51.5396 0)
(-69.2873 49.8387 0)
(-67.9709 47.7836 0)
(-66.1551 45.4897 0)
(-63.9605 43.045 0)
(-61.4756 40.5085 0)
(-58.7662 37.9209 0)
(-55.8879 35.3136 0)
(-52.8907 32.7116 0)
(-49.8049 30.1258 0)
(-46.6507 27.5594 0)
(-43.4456 25.0141 0)
(-40.2007 22.4879 0)
(-36.9257 19.977 0)
(-33.6291 17.4774 0)
(-30.3187 14.9841 0)
(-27.0015 12.4912 0)
(-23.6857 9.99357 0)
(-20.3771 7.48324 0)
(-17.0847 4.95409 0)
(-13.818 2.39927 0)
(-10.5872 -0.188681 0)
(-7.40497 -2.81664 0)
(-4.28301 -5.49411 0)
(-1.23848 -8.22805 0)
(1.70915 -11.0265 0)
(4.53715 -13.8976 0)
(7.2174 -16.8479 0)
(9.71844 -19.8852 0)
(11.9994 -23.0127 0)
(14.0098 -26.228 0)
(15.6873 -29.5214 0)
(16.9543 -32.8683 0)
(17.7176 -36.2274 0)
(17.8649 -39.5224 0)
(17.2693 -42.6297 0)
(15.7992 -45.3626 0)
(13.3503 -47.4527 0)
(9.89515 -48.5532 0)
(5.57499 -48.3555 0)
(0.737283 -46.7059 0)
(-4.12164 -43.5987 0)
(-8.43889 -39.2152 0)
(-11.5947 -33.5205 0)
(-12.3628 -25.2922 0)
(-0.00310187 0.00284801 0)
(-0.00549499 0.00562669 0)
(-0.00654378 0.00743949 0)
(-0.00610796 0.0076628 0)
(-0.00430017 0.00591119 0)
(-0.00152867 0.00228531 0)
(-0.000252393 0.000407269 0)
(-1.86773e-05 3.22905e-05 0)
(3.09631e-08 -5.69381e-08 0)
(2.87133e-09 -5.57624e-09 0)
(5.11307e-11 -1.04139e-10 0)
(-1.54603e-13 3.28023e-13 0)
(-5.90703e-14 1.29727e-13 0)
(-1.39127e-12 3.1436e-12 0)
(-1.45289e-11 3.3585e-11 0)
(-1.16016e-10 2.72914e-10 0)
(-7.24754e-10 1.72638e-09 0)
(-3.81515e-09 9.1594e-09 0)
(-1.76747e-08 4.25799e-08 0)
(-7.24999e-08 1.74533e-07 0)
(-2.67248e-07 6.40373e-07 0)
(-8.98355e-07 2.13462e-06 0)
(-2.79963e-06 6.57332e-06 0)
(-8.0431e-06 1.85974e-05 0)
(-2.0973e-05 4.76033e-05 0)
(-5.10477e-05 0.000113385 0)
(-0.000116826 0.00025318 0)
(-0.000252463 0.000532271 0)
(-0.000516728 0.00105684 0)
(-0.00100809 0.00199452 0)
(-0.00187641 0.00358145 0)
(-0.00334349 0.00613931 0)
(-0.00574093 0.010113 0)
(-0.0095786 0.0161425 0)
(-0.0156855 0.0252192 0)
(-0.025608 0.0391745 0)
(-0.0428071 0.0621531 0)
(-0.0758939 0.104373 0)
(-0.145844 0.189738 0)
(-0.307923 0.378933 0)
(-0.706417 0.82355 0)
(-1.68829 1.87074 0)
(-3.90274 4.13056 0)
(-8.03184 8.16727 0)
(-14.4112 14.162 0)
(-22.7698 21.7361 0)
(-31.9487 29.7439 0)
(-40.869 37.2153 0)
(-48.7406 43.5051 0)
(-55.1097 48.2985 0)
(-59.8563 51.5805 0)
(-63.0656 53.5055 0)
(-64.9217 54.2926 0)
(-65.6355 54.1669 0)
(-65.4165 53.3351 0)
(-64.4564 51.9762 0)
(-62.9226 50.2397 0)
(-60.9491 48.2387 0)
(-58.6439 46.0607 0)
(-56.0816 43.7629 0)
(-53.3207 41.3869 0)
(-50.4116 38.966 0)
(-47.3898 36.5201 0)
(-44.2848 34.0637 0)
(-41.1183 31.6046 0)
(-37.904 29.1443 0)
(-34.6569 26.685 0)
(-31.3892 24.2258 0)
(-28.1108 21.7638 0)
(-24.8318 19.2955 0)
(-21.5596 16.8146 0)
(-18.3044 14.3164 0)
(-15.0771 11.7952 0)
(-11.8887 9.2448 0)
(-8.75285 6.6597 0)
(-5.68204 4.03183 0)
(-2.69416 1.35584 0)
(0.190327 -1.37451 0)
(2.94797 -4.16489 0)
(5.54962 -7.01871 0)
(7.96245 -9.93994 0)
(10.1433 -12.926 0)
(12.0397 -15.9691 0)
(13.5875 -19.0518 0)
(14.708 -22.1398 0)
(15.3081 -25.1774 0)
(15.2805 -28.0707 0)
(14.513 -30.6754 0)
(12.9104 -32.7883 0)
(10.439 -34.1432 0)
(7.18702 -34.4468 0)
(3.43433 -33.5053 0)
(-0.379705 -31.2858 0)
(-3.76171 -27.9328 0)
(-6.28082 -23.7486 0)
(-7.58564 -18.8966 0)
(-7.09129 -12.9476 0)
(-0.00312089 0.00270634 0)
(-0.00554848 0.0053398 0)
(-0.00658662 0.00700287 0)
(-0.0061712 0.00720563 0)
(-0.00426075 0.00542715 0)
(-0.00145833 0.00201238 0)
(-0.000232615 0.000345348 0)
(-1.66475e-05 2.64106e-05 0)
(3.33953e-08 -5.62354e-08 0)
(2.89085e-09 -5.1329e-09 0)
(4.03931e-11 -7.51336e-11 0)
(-1.56054e-13 3.0218e-13 0)
(-4.34598e-14 8.70858e-14 0)
(-9.02567e-13 1.86108e-12 0)
(-8.35789e-12 1.76407e-11 0)
(-5.85988e-11 1.25977e-10 0)
(-3.16194e-10 6.89156e-10 0)
(-1.41336e-09 3.10935e-09 0)
(-5.43518e-09 1.20192e-08 0)
(-1.77827e-08 3.93717e-08 0)
(-5.12049e-08 1.1308e-07 0)
(-1.32165e-07 2.90077e-07 0)
(-3.02997e-07 6.58674e-07 0)
(-5.75104e-07 1.23421e-06 0)
(-9.1124e-07 1.92454e-06 0)
(-1.13046e-06 2.34255e-06 0)
(-8.79132e-07 1.78222e-06 0)
(-1.05955e-07 2.09538e-07 0)
(-9.39963e-09 1.80835e-08 0)
(-5.34035e-08 9.96739e-08 0)
(-2.64703e-07 4.78017e-07 0)
(-1.19132e-06 2.07598e-06 0)
(-4.76175e-06 7.98594e-06 0)
(-1.72846e-05 2.78256e-05 0)
(-6.05524e-05 9.33332e-05 0)
(-0.000211862 0.000311912 0)
(-0.000741548 0.00104056 0)
(-0.00263608 0.00351983 0)
(-0.00890747 0.0113077 0)
(-0.0267149 0.0322512 0)
(-0.0733229 0.0843243 0)
(-0.189704 0.208544 0)
(-0.509615 0.538251 0)
(-1.56952 1.60278 0)
(-4.21305 4.18842 0)
(-8.74168 8.51491 0)
(-15.2793 14.6576 0)
(-23.3293 22.1263 0)
(-31.8578 29.9511 0)
(-39.8944 37.241 0)
(-46.8319 43.456 0)
(-52.3211 48.3001 0)
(-56.3223 51.764 0)
(-58.9199 53.9525 0)
(-60.2895 55.0497 0)
(-60.628 55.2538 0)
(-60.133 54.7598 0)
(-58.9818 53.7374 0)
(-57.3196 52.3222 0)
(-55.2624 50.6195 0)
(-52.9018 48.7102 0)
(-50.3095 46.6548 0)
(-47.5384 44.4952 0)
(-44.6322 42.2635 0)
(-41.6247 39.9817 0)
(-38.5391 37.6628 0)
(-35.3975 35.3169 0)
(-32.2171 32.9498 0)
(-29.0131 30.5643 0)
(-25.8 28.1615 0)
(-22.5882 25.7385 0)
(-19.3903 23.2933 0)
(-16.2191 20.8224 0)
(-13.0873 18.3213 0)
(-10.0098 15.7863 0)
(-7.00033 13.2107 0)
(-4.07795 10.5907 0)
(-1.26487 7.92212 0)
(1.41387 5.20116 0)
(3.92689 2.42677 0)
(6.23838 -0.402008 0)
(8.30094 -3.27852 0)
(10.0577 -6.1898 0)
(11.4402 -9.1107 0)
(12.3664 -11.996 0)
(12.7441 -14.776 0)
(12.4768 -17.339 0)
(11.4831 -19.5224 0)
(9.73372 -21.1124 0)
(7.30478 -21.8578 0)
(4.43362 -21.5458 0)
(1.51774 -20.1124 0)
(-0.999344 -17.6618 0)
(-2.76317 -14.5031 0)
(-3.60926 -11.0423 0)
(-3.554 -7.61335 0)
(-2.58564 -4.215 0)
(-0.0031952 0.00261694 0)
(-0.00554075 0.00501719 0)
(-0.00646903 0.00644553 0)
(-0.00601021 0.00655084 0)
(-0.00385859 0.00457146 0)
(-0.00120307 0.00153928 0)
(-0.000179899 0.000246985 0)
(-1.17327e-05 1.71756e-05 0)
(4.42887e-08 -6.86996e-08 0)
(2.98094e-09 -4.86922e-09 0)
(2.07132e-11 -3.54114e-11 0)
(-1.45273e-13 2.58406e-13 0)
(-1.77747e-14 3.27118e-14 0)
(-2.45019e-13 4.6408e-13 0)
(-1.63866e-12 3.17851e-12 0)
(-7.20086e-12 1.42376e-11 0)
(-2.07054e-11 4.15482e-11 0)
(-3.67222e-11 7.44744e-11 0)
(-1.88189e-11 3.84206e-11 0)
(-1.33547e-14 2.73436e-14 0)
(-7.98218e-14 1.63314e-13 0)
(-1.67473e-13 3.41207e-13 0)
(-3.28056e-13 6.63368e-13 0)
(-1.5798e-11 3.16056e-11 0)
(-2.21247e-10 4.36588e-10 0)
(-1.07363e-10 2.08356e-10 0)
(-1.41737e-11 2.69746e-11 0)
(-9.85184e-11 1.83358e-10 0)