/*--------------------------------*- C++ -*----------------------------------*\
  =========                 |
  \\      /  F ield         | OpenFOAM: The Open Source CFD Toolbox
   \\    /   O peration     | Website:  https://openfoam.org
    \\  /    A nd           | Version:  7
     \\/     M anipulation  |
\*---------------------------------------------------------------------------*/
FoamFile
{
    version     2.0;
    format      ascii;
    class       volVectorField;
    location    "0";
    object      Fc;
}
// * * * * * * * * * * * * * * * * * * * * * * * * * * * * * * * * * * * * * //

dimensions      [1 -2 -2 0 0 0 0];

internalField   nonuniform List<vector> 
58002
(
(0 0 0)
(0 0 0)
(0 0 0)
(0 0 0)
(0 0 0)
(0 0 0)
(0 0 0)
(0 0 0)
(0 0 0)
(0 0 0)
(0 0 0)
(-1.18881e-316 -1.04644e-317 0)
(-2.47609e-312 -1.4516e-313 0)
(-5.27263e-308 -2.24788e-309 0)
(-7.57616e-304 -2.64361e-305 0)
(-7.44853e-300 -2.37616e-301 0)
(-5.0788e-296 -1.59548e-297 0)
(-2.45135e-292 -7.86616e-294 0)
(-8.53207e-289 -2.83039e-290 0)
(-2.17591e-285 -7.45975e-287 0)
(-4.12927e-282 -1.45573e-283 0)
(-6.01131e-279 -2.16596e-280 0)
(-7.1079e-276 -2.60318e-277 0)
(-7.30957e-273 -2.70897e-274 0)
(-7.15963e-270 -2.67641e-271 0)
(-5.15103e-267 -1.93799e-268 0)
(-1.69575e-264 -6.41202e-266 0)
(1.02917e-263 3.90837e-265 0)
(4.29637e-261 1.63704e-262 0)
(3.29993e-259 1.2606e-260 0)
(5.19593e-258 1.98666e-259 0)
(2.33962e-254 8.96503e-256 0)
(-1.13736e-252 -4.36688e-254 0)
(-1.35195e-248 -5.1994e-250 0)
(1.6667e-248 6.41971e-250 0)
(1.49009e-243 5.74611e-245 0)
(-3.56144e-242 -1.3744e-243 0)
(-7.90443e-238 -3.05222e-239 0)
(-1.39234e-237 -5.37987e-239 0)
(3.654e-233 1.41274e-234 0)
(-3.66974e-232 -1.41935e-233 0)
(-3.04337e-227 -1.17721e-228 0)
(1.10185e-226 4.26228e-228 0)
(1.51144e-221 5.847e-223 0)
(-1.04784e-221 -4.05312e-223 0)
(-4.3118e-216 -1.66715e-217 0)
(-3.76317e-216 -1.45425e-217 0)
(1.2865e-214 4.96942e-216 0)
(6.90941e-213 2.66776e-214 0)
(5.9847e-210 2.30904e-211 0)
(1.25966e-209 4.85508e-211 0)
(-4.14586e-206 -1.5963e-207 0)
(-2.36883e-201 -9.11251e-203 0)
(-6.19994e-200 -2.38252e-201 0)
(-5.96026e-200 -2.28731e-201 0)
(6.02638e-197 2.30914e-198 0)
(3.34829e-192 1.28094e-193 0)
(2.68039e-190 1.02364e-191 0)
(6.99308e-190 2.6656e-191 0)
(-2.75848e-188 -1.04947e-189 0)
(-4.08958e-185 -1.55281e-186 0)
(-4.17643e-181 -1.58205e-182 0)
(3.38042e-181 1.27717e-182 0)
(9.7375e-179 3.66984e-180 0)
(2.97738e-177 1.11925e-178 0)
(2.57305e-177 9.64144e-179 0)
(-1.97175e-172 -7.36219e-174 0)
(-8.2762e-171 -3.08081e-172 0)
(-1.68325e-169 -6.24663e-171 0)
(-2.26469e-168 -8.36947e-170 0)
(-1.48263e-167 -5.4542e-169 0)
(-1.95243e-167 -7.15401e-169 0)
(3.02146e-168 1.10261e-169 0)
(2.01797e-166 7.328e-168 0)
(1.31621e-165 4.75506e-167 0)
(6.41087e-165 2.30387e-166 0)
(2.66526e-164 9.52349e-166 0)
(9.83727e-164 3.4946e-165 0)
(3.40645e-163 1.20293e-164 0)
(1.06448e-162 3.73511e-164 0)
(3.00848e-162 1.04867e-163 0)
(9.66225e-162 3.34481e-163 0)
(2.97533e-161 1.02267e-162 0)
(6.202e-161 2.11669e-162 0)
(1.34011e-160 4.54195e-162 0)
(3.90868e-160 1.3164e-161 0)
(-6.74993e-159 -2.26194e-160 0)
(4.95293e-144 1.65613e-145 0)
(-3.3556e-90 -1.12608e-91 0)
(3.96387e-75 1.3508e-76 0)
(1.52651e-54 5.40523e-56 0)
(-2.83661e-39 -1.08646e-40 0)
(5.75089e-25 2.5146e-26 0)
(-5.42123e-10 -2.76526e-11 0)
(152968 7656.05 0)
(0 0 0)
(0 0 0)
(0 0 0)
(0 0 0)
(0 0 0)
(0 0 0)
(0 0 0)
(0 0 0)
(0 0 0)
(0 0 0)
(0 0 0)
(1.17586e-314 1.01045e-315 0)
(2.94741e-310 1.66192e-311 0)
(4.14896e-306 1.66388e-307 0)
(2.84679e-302 9.09436e-304 0)
(9.90125e-299 2.81457e-300 0)
(1.97252e-295 5.38995e-297 0)
(1.51177e-292 4.13011e-294 0)
(-4.10769e-289 -1.13713e-290 0)
(-1.80101e-285 -5.05278e-287 0)
(-3.88285e-282 -1.09872e-283 0)
(-5.88304e-279 -1.66932e-280 0)
(-7.05434e-276 -1.99755e-277 0)
(-7.2917e-273 -2.05369e-274 0)
(-7.1542e-270 -2.00069e-271 0)
(-5.14935e-267 -1.42927e-268 0)
(-1.69493e-264 -4.67121e-266 0)
(1.02875e-263 2.81956e-265 0)
(4.28581e-261 1.16902e-262 0)
(3.28659e-259 8.93042e-261 0)
(5.17373e-258 1.40006e-259 0)
(2.3312e-254 6.28517e-256 0)
(-1.13259e-252 -3.04281e-254 0)
(-1.348e-248 -3.60763e-250 0)
(1.65855e-248 4.41993e-250 0)
(1.48613e-243 3.93923e-245 0)
(-3.54766e-242 -9.34351e-244 0)
(-7.88028e-238 -2.06169e-239 0)
(-1.39043e-237 -3.6142e-239 0)
(3.64434e-233 9.40855e-235 0)
(-3.65425e-232 -9.36062e-234 0)
(-3.0356e-227 -7.70832e-229 0)
(1.09665e-226 2.75973e-228 0)
(1.50765e-221 3.75921e-223 0)
(-1.0389e-221 -2.56453e-223 0)
(-4.30075e-216 -1.04982e-217 0)
(-3.76156e-216 -9.0744e-218 0)
(1.28081e-214 3.05336e-216 0)
(6.88246e-213 1.62043e-214 0)
(5.9639e-210 1.38486e-211 0)
(1.25821e-209 2.87794e-211 0)
(-4.12671e-206 -9.29406e-208 0)
(-2.35746e-201 -5.22536e-203 0)
(-6.18355e-200 -1.34693e-201 0)
(-5.9579e-200 -1.27297e-201 0)
(5.99491e-197 1.25474e-198 0)
(3.33015e-192 6.82029e-194 0)
(2.66786e-190 5.3371e-192 0)
(6.98326e-190 1.36198e-191 0)
(-2.74112e-188 -5.20504e-190 0)
(-4.064e-185 -7.49908e-187 0)
(-4.16186e-181 -7.43586e-183 0)
(3.3321e-181 5.74296e-183 0)
(9.66699e-179 1.604e-180 0)
(2.96672e-177 4.72598e-179 0)
(2.57684e-177 3.91567e-179 0)
(-1.95544e-172 -2.8144e-174 0)
(-8.20552e-171 -1.11433e-172 0)
(-1.66853e-169 -2.12625e-171 0)
(-2.24446e-168 -2.64915e-170 0)
(-1.47523e-167 -1.58877e-169 0)
(-1.95266e-167 -1.89521e-169 0)
(2.73308e-168 2.34474e-170 0)
(1.99382e-166 1.46224e-168 0)
(1.30233e-165 7.79926e-168 0)
(6.34451e-165 2.87924e-167 0)
(2.63742e-164 7.7596e-167 0)
(9.73375e-164 1.17291e-166 0)
(3.38873e-163 -2.34393e-166 0)
(1.09469e-162 -3.06459e-165 0)
(4.4938e-162 -2.30935e-164 0)
(4.90783e-158 -3.8067e-160 0)
(2.1315e-155 -2.28403e-157 0)
(4.70827e-154 -6.62507e-156 0)
(7.54716e-153 -1.35226e-154 0)
(9.38681e-150 -2.09886e-151 0)
(4.63152e-142 -1.27508e-143 0)
(-5.71331e-135 1.9187e-136 0)
(-1.37768e-117 5.60292e-119 0)
(-8.42945e-67 4.12033e-68 0)
(4.02019e-52 -2.33627e-53 0)
(-2.81744e-37 1.91465e-38 0)
(5.93639e-23 -4.65181e-24 0)
(-1.60892e-08 1.53677e-09 0)
(6.81716e+06 -933823 0)
(0 0 0)
(0 0 0)
(0 0 0)
(0 0 0)
(0 0 0)
(0 0 0)
(0 0 0)
(0 0 0)
(0 0 0)
(0 0 0)
(0 0 0)
(-3.90158e-314 -3.30144e-315 0)
(1.97287e-310 1.0792e-311 0)
(7.15199e-306 2.7153e-307 0)
(1.02933e-301 3.01328e-303 0)
(8.06231e-298 2.02745e-299 0)
(3.25971e-294 7.62006e-296 0)
(6.9332e-291 1.57066e-292 0)
(8.17577e-288 1.82089e-289 0)
(6.22907e-285 1.36359e-286 0)
(2.1318e-282 4.56061e-284 0)
(-2.58289e-279 -5.36435e-281 0)
(-5.57599e-276 -1.11843e-277 0)
(-6.76967e-273 -1.3078e-274 0)
(-7.00104e-270 -1.30207e-271 0)
(-5.12041e-267 -9.18695e-269 0)
(-1.67593e-264 -2.91112e-266 0)
(1.05565e-263 1.78473e-265 0)
(4.28859e-261 7.0906e-263 0)
(3.26437e-259 5.29389e-261 0)
(5.1234e-258 8.17429e-260 0)
(2.32004e-254 3.63829e-256 0)
(-1.11804e-252 -1.72407e-254 0)
(-1.34281e-248 -2.03355e-250 0)
(1.62648e-248 2.41361e-250 0)
(1.48107e-243 2.14727e-245 0)
(-3.52535e-242 -4.98295e-244 0)
(-7.83318e-238 -1.07872e-239 0)
(-1.39156e-237 -1.86552e-239 0)
(3.62685e-233 4.72113e-235 0)
(-3.63267e-232 -4.57441e-234 0)
(-3.02572e-227 -3.67432e-229 0)
(1.08894e-226 1.27258e-228 0)
(1.50266e-221 1.6853e-223 0)
(-1.02477e-221 -1.098e-223 0)
(-4.28606e-216 -4.36471e-218 0)
(-3.7651e-216 -3.6284e-218 0)
(1.27162e-214 1.1544e-216 0)
(6.82923e-213 5.7997e-215 0)
(5.93044e-210 4.6681e-212 0)
(1.25468e-209 9.06718e-212 0)
(-4.0961e-206 -2.68977e-208 0)
(-2.33894e-201 -1.37453e-203 0)
(-6.15815e-200 -3.16452e-202 0)
(-5.95635e-200 -2.59534e-202 0)
(5.94689e-197 2.11001e-199 0)
(3.30057e-192 8.94348e-195 0)
(2.64728e-190 4.83818e-193 0)
(6.9697e-190 6.27809e-193 0)
(-2.71231e-188 1.66686e-192 0)
(-4.02112e-185 4.2962e-188 0)
(-4.13647e-181 8.87828e-184 0)
(3.2404e-181 -1.06932e-183 0)
(9.54303e-179 -4.29664e-181 0)
(2.94744e-177 -1.69398e-179 0)
(2.58119e-177 -1.82697e-179 0)
(-1.92732e-172 1.64323e-174 0)
(-8.08109e-171 8.12756e-173 0)
(-1.64229e-169 1.91314e-171 0)
(-2.20802e-168 2.94882e-170 0)
(-1.46178e-167 2.22443e-169 0)
(-1.95361e-167 3.3623e-169 0)
(2.19987e-168 -4.25392e-170 0)
(1.94957e-166 -4.21931e-168 0)
(1.27734e-165 -3.08346e-167 0)
(6.22639e-165 -1.67176e-166 0)
(2.58452e-164 -7.70777e-166 0)
(1.98892e-163 -6.57995e-165 0)
(6.8992e-162 -2.52988e-163 0)
(6.84853e-162 -2.78445e-163 0)
(9.98733e-159 -4.50457e-160 0)
(2.72424e-156 -1.36468e-157 0)
(3.11907e-154 -1.73915e-155 0)
(5.67766e-153 -3.53276e-154 0)
(8.22264e-152 -5.72903e-153 0)
(4.0253e-147 -3.15383e-148 0)
(1.84876e-139 -1.63695e-140 0)
(-4.20555e-134 4.23204e-135 0)
(3.51931e-120 -4.04891e-121 0)
(4.29784e-83 -5.68406e-84 0)
(-2.46492e-69 3.75993e-70 0)
(7.19945e-54 -1.26486e-54 0)
(-1.4476e-38 2.90884e-39 0)
(1.84547e-24 -4.2671e-25 0)
(1.75453e+07 -3.44763e+06 0)
(0 0 0)
(0 0 0)
(0 0 0)
(0 0 0)
(0 0 0)
(0 0 0)
(0 0 0)
(0 0 0)
(0 0 0)
(0 0 0)
(0 0 0)
(-9.66898e-314 -8.05473e-315 0)
(-9.46006e-310 -5.01563e-311 0)
(-3.27332e-306 -1.1728e-307 0)
(5.17993e-302 1.37805e-303 0)
(8.08946e-298 1.76915e-299 0)
(5.79559e-294 1.12608e-295 0)
(2.45297e-290 4.41314e-292 0)
(6.34512e-287 1.07001e-288 0)
(9.67121e-284 1.52129e-285 0)
(8.8913e-281 1.28872e-282 0)
(5.10213e-278 6.7182e-280 0)
(1.92775e-275 2.27558e-277 0)
(3.54962e-273 3.71885e-275 0)
(-4.15503e-270 -3.83682e-272 0)
(-4.62056e-267 -3.7549e-269 0)
(-1.41317e-264 -1.01378e-266 0)
(1.56824e-263 1.00146e-265 0)
(4.48325e-261 2.57707e-263 0)
(3.28732e-259 1.70793e-261 0)
(5.10601e-258 2.42812e-260 0)
(2.3041e-254 9.96351e-257 0)
(-1.10452e-252 -4.30512e-255 0)
(-1.32907e-248 -4.58143e-251 0)
(1.60312e-248 4.74082e-251 0)
(1.47141e-243 3.57464e-246 0)
(-3.46466e-242 -6.52572e-245 0)
(-7.79212e-238 -1.04057e-240 0)
(-1.37648e-237 -1.06336e-240 0)
(3.63122e-233 6.22207e-237 0)
(-3.59294e-232 1.69429e-235 0)
(-3.01093e-227 3.42661e-230 0)
(1.07364e-226 -1.95177e-229 0)
(1.49387e-221 -3.77092e-224 0)
(-1.00563e-221 3.29045e-224 0)
(-4.26486e-216 1.72954e-218 0)
(-3.76047e-216 1.82775e-218 0)
(1.26185e-214 -7.18025e-217 0)
(6.75818e-213 -4.4323e-215 0)
(5.87385e-210 -4.38598e-212 0)
(1.25788e-209 -1.05742e-211 0)
(-4.06051e-206 3.80881e-208 0)
(-2.31643e-201 2.41042e-203 0)
(-6.13273e-200 7.04714e-202 0)
(-5.96383e-200 7.53028e-202 0)
(5.88167e-197 -8.11933e-199 0)
(3.26553e-192 -4.90828e-194 0)
(2.62494e-190 -4.28236e-192 0)
(6.93668e-190 -1.22503e-191 0)
(-2.68479e-188 5.12053e-190 0)
(-3.97787e-185 8.17697e-187 0)
(-4.1134e-181 9.09916e-183 0)
(3.14569e-181 -7.48084e-183 0)
(9.42599e-179 -2.40733e-180 0)
(2.9307e-177 -8.02427e-179 0)
(2.58601e-177 -7.58045e-179 0)
(-1.90191e-172 5.96982e-174 0)
(-7.97087e-171 2.67995e-172 0)
(-1.61966e-169 5.8273e-171 0)
(-2.17759e-168 8.37704e-170 0)
(-1.45134e-167 5.97337e-169 0)
(-1.95647e-167 8.62089e-169 0)
(1.92224e-168 -9.06926e-170 0)
(1.92444e-166 -9.72785e-168 0)
(1.2786e-165 -6.93099e-167 0)
(6.16571e-165 -3.58735e-166 0)
(2.55995e-164 -1.60073e-165 0)
(1.73777e-162 -1.16969e-163 0)
(5.87185e-161 -4.26202e-162 0)
(-1.41905e-159 1.11323e-160 0)
(8.94453e-158 -7.60318e-159 0)
(-6.87564e-151 6.35165e-152 0)
(-2.3274e-147 2.34499e-148 0)
(-3.14215e-146 3.46707e-147 0)
(-9.15721e-147 1.11186e-147 0)
(4.35402e-146 -5.85008e-147 0)
(6.06115e-139 -9.06986e-140 0)
(-7.42447e-130 1.24644e-130 0)
(3.1793e-114 -6.03702e-115 0)
(-2.83617e-99 6.14309e-100 0)
(9.47579e-92 -2.35888e-92 0)
(-6.29586e-70 1.80741e-70 0)
(5.10469e-74 -1.67566e-74 0)
(-3.50397e-40 1.26685e-40 0)
(2.55921e+07 -5.135e+06 0)
(0 0 0)
(0 0 0)
(0 0 0)
(0 0 0)
(0 0 0)
(0 0 0)
(0 0 0)
(0 0 0)
(0 0 0)
(0 0 0)
(1.83941e-317 2.44251e-318 0)
(-4.63859e-313 -3.80328e-314 0)
(-1.19204e-308 -6.11954e-310 0)
(-1.4753e-304 -4.9707e-306 0)
(-1.00201e-300 -2.39817e-302 0)
(-3.60648e-297 -6.70554e-299 0)
(-5.36838e-294 -8.31254e-296 0)
(8.99103e-291 1.19842e-292 0)
(6.07768e-287 6.963e-289 0)
(1.577e-283 1.50935e-285 0)
(2.57601e-280 1.95696e-282 0)
(2.7521e-277 1.5322e-279 0)
(1.96814e-274 6.98897e-277 0)
(9.03723e-272 1.47578e-274 0)
(2.64406e-269 -3.57869e-273 0)
(1.72179e-267 -2.92612e-270 0)
(4.75987e-265 -1.44721e-267 0)
(8.51197e-263 -3.54392e-265 0)
(7.35494e-261 -3.73707e-263 0)
(3.74391e-259 -2.201e-261 0)
(5.47023e-258 -3.55979e-260 0)
(2.24563e-254 -1.59263e-256 0)
(-1.23136e-252 9.46003e-255 0)
(-1.2209e-248 1.014e-250 0)
(9.35092e-248 -8.39097e-250 0)
(1.43807e-243 -1.39179e-245 0)
(-3.46403e-242 3.60274e-244 0)
(-8.3332e-238 9.27776e-240 0)
(-1.51252e-237 1.7994e-239 0)
(4.06727e-233 -5.16906e-235 0)
(-3.44313e-232 4.66996e-234 0)
(-2.98356e-227 4.30827e-229 0)
(1.05234e-226 -1.61418e-228 0)
(1.48511e-221 -2.41771e-223 0)
(-9.48404e-222 1.63811e-223 0)
(-4.23007e-216 7.74294e-218 0)
(-3.74952e-216 7.26082e-218 0)
(1.24305e-214 -2.54341e-216 0)
(6.88999e-213 -1.48864e-214 0)
(5.85299e-210 -1.33439e-211 0)
(1.25215e-209 -3.00952e-211 0)
(-4.01674e-206 1.01729e-207 0)
(-2.29894e-201 6.1349e-203 0)
(-6.11192e-200 1.71809e-201 0)
(-5.96503e-200 1.76521e-201 0)
(5.79483e-197 -1.80431e-198 0)
(3.23511e-192 -1.05949e-193 0)
(2.60657e-190 -8.97522e-192 0)
(6.95179e-190 -2.51628e-191 0)
(-2.65829e-188 1.01169e-189 0)
(-3.93785e-185 1.57595e-186 0)
(-4.08986e-181 1.72073e-182 0)
(3.06567e-181 -1.35609e-182 0)
(9.31405e-179 -4.33463e-180 0)
(2.91522e-177 -1.42774e-178 0)
(2.58902e-177 -1.33398e-178 0)
(-1.87861e-172 1.0188e-173 0)
(-7.87845e-171 4.50257e-172 0)
(-1.60209e-169 9.65441e-171 0)
(-2.15605e-168 1.37016e-169 0)
(-1.4446e-167 9.69014e-169 0)
(-1.95429e-167 1.38545e-168 0)
(4.11251e-168 -3.08408e-169 0)
(1.97039e-166 -1.56494e-167 0)
(1.85849e-165 -1.56566e-166 0)
(-2.14015e-162 1.91514e-163 0)
(-5.07523e-161 4.83245e-162 0)
(-1.90844e-159 1.93753e-160 0)
(-5.67435e-158 6.15608e-159 0)
(-2.71322e-158 3.15371e-159 0)
(-2.38904e-153 2.98408e-154 0)
(-7.64398e-149 1.02946e-149 0)
(-3.06083e-146 4.46205e-147 0)
(-1.37902e-144 2.18588e-145 0)
(-1.14835e-144 1.98952e-145 0)
(-4.76814e-140 9.084e-141 0)
(-1.21092e-138 2.55479e-139 0)
(9.86095e-134 -2.32286e-134 0)
(-5.18434e-126 1.37645e-126 0)
(-3.71705e-112 1.12422e-112 0)
(-2.84708e-107 9.92011e-108 0)
(7.63413e-90 -3.09223e-90 0)
(-9.68104e-90 4.53987e-90 0)
(-1.62644e-90 8.32187e-91 0)
(3.13899e+07 -7.44743e+06 0)
(0 0 0)
(0 0 0)
(0 0 0)
(0 0 0)
(0 0 0)
(0 0 0)
(0 0 0)
(0 0 0)
(0 0 0)
(0 0 0)
(-2.74468e-316 -3.61639e-317 0)
(-8.75853e-312 -7.06637e-313 0)
(-1.82996e-307 -9.08655e-309 0)
(-2.22264e-303 -7.01397e-305 0)
(-1.58253e-299 -3.36509e-301 0)
(-6.7919e-296 -1.04029e-297 0)
(-1.81951e-292 -2.09953e-294 0)
(-3.14967e-289 -2.73002e-291 0)
(-3.48317e-286 -2.1075e-288 0)
(-2.19814e-283 -7.50145e-286 0)
(2.22829e-281 1.55982e-284 0)
(1.92429e-277 -3.9117e-280 0)
(2.0623e-274 -9.70037e-277 0)
(1.29756e-271 -9.36126e-274 0)
(5.3078e-269 -5.04859e-271 0)
(9.7834e-267 -1.12863e-268 0)
(2.20184e-264 -2.92189e-266 0)
(1.87733e-262 -2.76587e-264 0)
(1.06855e-260 -1.70278e-262 0)
(3.92292e-259 -6.65961e-261 0)
(3.88218e-257 -6.90817e-259 0)
(-7.51205e-255 1.39215e-256 0)
(-4.0975e-252 7.90253e-254 0)
(-3.98863e-249 8.00847e-251 0)
(2.35797e-246 -4.93262e-248 0)
(1.28583e-243 -2.80258e-245 0)
(-3.81739e-242 8.66337e-244 0)
(-2.01901e-237 4.76823e-239 0)
(-4.69031e-237 1.15302e-238 0)
(1.32624e-232 -3.39561e-234 0)
(-1.59841e-232 4.26176e-234 0)
(-2.9877e-227 8.28982e-229 0)
(1.06291e-226 -3.06818e-228 0)
(1.49812e-221 -4.50076e-223 0)
(-9.17485e-222 2.8698e-223 0)
(-4.24055e-216 1.38059e-217 0)
(-3.85145e-216 1.30446e-217 0)
(1.22573e-214 -4.31823e-216 0)
(7.94206e-212 -2.91072e-213 0)
(5.96526e-210 -2.27441e-211 0)
(1.02529e-209 -4.06688e-211 0)
(-3.96403e-206 1.63622e-207 0)
(-3.19893e-201 1.37446e-202 0)
(-6.24818e-200 2.79444e-201 0)
(-5.43957e-200 2.53211e-201 0)
(5.89207e-197 -2.85523e-198 0)
(3.2178e-192 -1.62369e-193 0)
(2.64546e-190 -1.39007e-191 0)
(7.23757e-190 -3.96097e-191 0)
(-2.6066e-188 1.4867e-189 0)
(-3.88514e-185 2.31066e-186 0)
(-4.06393e-181 2.52045e-182 0)
(2.95407e-181 -1.91094e-182 0)
(9.20181e-179 -6.21391e-180 0)
(2.8942e-177 -2.04193e-178 0)
(2.57679e-177 -1.89982e-178 0)
(-1.85888e-172 1.43287e-173 0)
(-7.80824e-171 6.29986e-172 0)
(-1.59085e-169 1.34479e-170 0)
(-2.14356e-168 1.89966e-169 0)
(-1.49003e-167 1.38577e-168 0)
(-1.66881e-167 1.63092e-168 0)
(-5.67875e-167 5.83858e-168 0)
(-2.56784e-164 2.78127e-165 0)
(-1.43888e-162 1.64454e-163 0)
(-2.27389e-161 2.74695e-162 0)
(-3.92506e-160 5.02118e-161 0)
(-1.29688e-158 1.76077e-159 0)
(-2.78173e-157 4.01778e-158 0)
(1.14872e-154 -1.7699e-155 0)
(-1.34267e-151 2.21376e-152 0)
(-2.26455e-148 4.00952e-149 0)
(-6.14658e-146 1.17346e-146 0)
(-3.1472e-144 6.50906e-145 0)
(-8.3899e-144 1.89001e-144 0)
(-4.3835e-139 1.08244e-139 0)
(-8.98072e-138 2.44913e-138 0)
(5.13966e-133 -1.56169e-133 0)
(4.03068e-131 -1.37907e-131 0)
(5.11948e-127 -1.9976e-127 0)
(-1.17928e-123 5.32878e-124 0)
(-2.53748e-105 1.35147e-105 0)
(5.3299e-100 -3.39138e-100 0)
(-2.75319e-91 2.00366e-91 0)
(2.3526e+07 -1.02861e+07 0)
(-4.54706e+09 1.23327e+08 0)
(576422 1.15164e+06 0)
(227180 161763 0)
(101861 63864.8 0)
(55863.7 34463 0)
(36164 23103.3 0)
(26563.5 17946.4 0)
(20176.4 14537.9 0)
(11510.1 9201.83 0)
(2409.4 2407.93 0)
(0.91579 1.35808 0)
(-0.0577506 -0.153226 0)
(-0.000158975 -0.00108387 0)
(-3.60527e-06 0.000192794 0)
(-9.64547e-06 7.6654e-05 0)
(-6.9555e-06 3.79096e-05 0)
(-4.35513e-06 2.16474e-05 0)
(-2.54559e-06 1.35107e-05 0)
(-1.33811e-06 8.68507e-06 0)
(-4.42193e+09 1.21835e+08 0)
(263032 1.20795e+06 0)
(182486 220439 0)
(88814.6 88216.3 0)
(50569.6 47275.7 0)
(33540.9 31107.2 0)
(25126.6 23576.1 0)
(19388.3 18558.4 0)
(11176.8 11369.5 0)
(2351.22 2862.37 0)
(0.677128 1.16485 0)
(-0.0607273 -0.17509 0)
(-0.000197554 -0.00127037 0)
(2.31963e-06 0.000208437 0)
(-7.06875e-06 8.08502e-05 0)
(-5.66312e-06 3.91498e-05 0)
(-3.66394e-06 2.19417e-05 0)
(-2.18002e-06 1.34808e-05 0)
(-1.16585e-06 8.56045e-06 0)
(-4.29215e+09 1.21629e+08 0)
(87164.6 1.02794e+06 0)
(131995 257207 0)
(71952.6 107014 0)
(43338.4 58125.5 0)
(29825.1 38202.9 0)
(23004.3 28704.7 0)
(18114.8 22224.8 0)
(10506.8 13250.2 0)
(2172.65 3178.4 0)
(-0.0632023 -0.126197 0)
(-0.0618347 -0.197546 0)
(-0.000136073 -0.000886868 0)
(6.41815e-06 0.00022786 0)
(-5.24272e-06 8.58789e-05 0)
(-4.72895e-06 4.0781e-05 0)
(-3.1575e-06 2.24394e-05 0)
(-1.91027e-06 1.35687e-05 0)
(-1.03887e-06 8.50616e-06 0)
(-4.1637e+09 1.20987e+08 0)
(2712.77 836549 0)
(84973.3 275354 0)
(53404.1 119593 0)
(34785.4 66546.4 0)
(25279.5 44172.6 0)
(20327.9 33206.7 0)
(16419.7 25412.3 0)
(9505.49 14684.2 0)
(1857.99 3253.15 0)
(-0.29722 -0.693339 0)
(-0.0593699 -0.214552 0)
(-8.50604e-05 -0.000593404 0)
(8.77818e-06 0.000249158 0)
(-4.07008e-06 9.14664e-05 0)
(-4.09575e-06 4.2713e-05 0)
(-2.80465e-06 2.30986e-05 0)
(-1.72026e-06 1.37498e-05 0)
(-9.5023e-07 8.50662e-06 0)
(-4.036e+09 1.20286e+08 0)
(-36314.2 691813 0)
(43747.9 277940 0)
(35211.5 127977 0)
(25664.6 72658.5 0)
(20189.8 48884 0)
(17239.1 36976.8 0)
(14386.9 28002.8 0)
(8225.14 15527.5 0)
(1446.06 3040.8 0)
(-0.27408 -0.756142 0)
(-0.0524644 -0.219684 0)
(-1.15077e-05 -9.0385e-05 0)
(9.3163e-06 0.00027023 0)
(-3.50445e-06 9.73196e-05 0)
(-3.72992e-06 4.48526e-05 0)
(-2.58542e-06 2.38797e-05 0)
(-1.59916e-06 1.4002e-05 0)
(-8.95006e-07 8.54828e-06 0)
(-3.90995e+09 1.20043e+08 0)
(-53522.3 596884 0)
(8265.85 270784 0)
(17383.1 131373 0)
(16381 76398 0)
(14838.6 52306.9 0)
(13891.4 39946.3 0)
(12111.1 29877.7 0)
(6744.03 15651.3 0)
(999.93 2552.76 0)
(-0.243533 -0.809786 0)
(-0.041758 -0.208872 0)
(6.14198e-05 0.0005748 0)
(7.97438e-06 0.000289392 0)
(-3.52079e-06 0.000103149 0)
(-3.61118e-06 4.71081e-05 0)
(-2.48657e-06 2.47447e-05 0)
(-1.5394e-06 1.43057e-05 0)
(-8.69579e-07 8.6193e-06 0)
(-5.86115e-07 5.48629e-06 0)
(-1.74313e-07 3.26641e-06 0)
(3.30696e-09 1.74944e-06 0)
(4.60783e-08 8.26501e-07 0)
(3.65936e-08 3.4396e-07 0)
(1.89443e-08 1.23894e-07 0)
(6.25834e-09 3.20934e-08 0)
(-2.15232e-10 -9.24733e-10 0)
(-6.05119e-10 -2.27165e-09 0)
(-4.95879e-10 -1.67442e-09 0)
(-1.70193e-10 -5.27921e-10 0)
(-3.31995e-12 -9.61088e-12 0)
(-7.24845e-15 -1.98257e-14 0)
(3.59062e-12 9.37146e-12 0)
(3.72491e-11 9.35232e-11 0)
(2.87774e-10 6.99712e-10 0)
(1.83373e-09 4.34224e-09 0)
(1.01686e-08 2.35642e-08 0)
(5.08709e-08 1.15851e-07 0)
(2.31717e-07 5.20518e-07 0)
(9.66222e-07 2.14798e-06 0)
(3.70547e-06 8.17641e-06 0)
(1.37353e-05 3.01658e-05 0)
(4.90417e-05 0.000107476 0)
(0.000161964 0.000355046 0)
(0.000492321 0.00108204 0)
(0.00138714 0.00306362 0)
(0.00368256 0.00819188 0)
(0.00923097 0.0207311 0)
(0.0218665 0.0497006 0)
(0.049195 0.11346 0)
(0.106087 0.248985 0)
(0.221418 0.530503 0)
(0.450151 1.10493 0)
(0.893078 2.25462 0)
(1.72529 4.49936 0)
(3.22646 8.73185 0)
(5.78104 16.3058 0)
(9.78473 28.8512 0)
(15.4155 47.5398 0)
(22.3727 71.9155 0)
(29.8451 99.2259 0)
(36.8476 125.345 0)
(42.702 146.929 0)
(47.2714 162.882 0)
(50.785 173.882 0)
(53.5046 180.998 0)
(55.6057 185.099 0)
(57.2313 186.959 0)
(58.4976 187.208 0)
(59.4978 186.326 0)
(60.3046 184.661 0)
(60.9716 182.461 0)
(61.5382 179.914 0)
(62.0394 177.169 0)
(62.5089 174.338 0)
(62.9733 171.5 0)
(63.453 168.709 0)
(63.9671 166.017 0)
(64.5244 163.444 0)
(65.1289 160.989 0)
(65.7841 158.648 0)
(66.4917 156.418 0)
(67.2501 154.298 0)
(68.0583 152.288 0)
(68.9176 150.385 0)
(69.8289 148.588 0)
(70.7915 146.894 0)
(71.8042 145.306 0)
(72.8662 143.824 0)
(73.9802 142.449 0)
(75.148 141.181 0)
(76.3724 140.024 0)
(77.6545 138.98 0)
(78.9938 138.054 0)
(80.3944 137.248 0)
(81.8617 136.566 0)
(83.4047 136.014 0)
(85.0308 135.6 0)
(86.7458 135.327 0)
(88.5599 135.2 0)
(90.4874 135.223 0)
(92.5488 135.397 0)
(94.7661 135.723 0)
(97.1584 136.19 0)
(99.7434 136.772 0)
(102.534 137.419 0)
(105.535 138.05 0)
(108.734 138.534 0)
(112.069 138.66 0)
(115.385 138.096 0)
(118.39 136.369 0)
(120.7 132.964 0)
(121.909 127.46 0)
(121.732 119.735 0)
(120.311 110.255 0)
(116.708 98.6967 0)
(-5.24628e-07 5.36279e-06 0)
(-1.66858e-07 3.17805e-06 0)
(-7.26514e-09 1.69885e-06 0)
(3.51737e-08 8.02689e-07 0)
(3.00744e-08 3.34515e-07 0)
(1.60474e-08 1.20726e-07 0)
(5.38936e-09 3.12663e-08 0)
(-1.97003e-10 -9.46526e-10 0)
(-5.40818e-10 -2.25032e-09 0)
(-4.45783e-10 -1.65651e-09 0)
(-1.52415e-10 -5.1723e-10 0)
(-2.72404e-12 -8.58514e-12 0)
(5.74277e-15 1.70284e-14 0)
(3.36788e-12 9.49406e-12 0)
(3.51406e-11 9.49869e-11 0)
(2.72322e-10 7.10829e-10 0)
(1.74e-09 4.41202e-09 0)
(9.67233e-09 2.39463e-08 0)
(4.84925e-08 1.17743e-07 0)
(2.21296e-07 5.2903e-07 0)
(9.24267e-07 2.18302e-06 0)
(3.54957e-06 8.30908e-06 0)
(1.31759e-05 3.06573e-05 0)
(4.71002e-05 0.000109227 0)
(0.000155686 0.000360754 0)
(0.000473504 0.00109901 0)
(0.00133483 0.00311084 0)
(0.00354538 0.00831649 0)
(0.00889061 0.0210431 0)
(0.0210669 0.0504431 0)
(0.0474069 0.115151 0)
(0.102247 0.252706 0)
(0.213419 0.538504 0)
(0.433882 1.12184 0)
(0.860651 2.28984 0)
(1.66206 4.57135 0)
(3.10652 8.87566 0)
(5.56209 16.5833 0)
(9.40556 29.3605 0)
(14.803 48.4128 0)
(21.4637 73.294 0)
(28.6149 101.219 0)
(35.323 127.991 0)
(40.9473 150.191 0)
(45.3602 166.682 0)
(48.7815 178.134 0)
(51.4581 185.619 0)
(53.5524 190.012 0)
(55.1957 192.094 0)
(56.4973 192.505 0)
(57.5469 191.738 0)
(58.4126 190.151 0)
(59.1435 188 0)
(59.7755 185.477 0)
(60.3435 182.736 0)
(60.8816 179.9 0)
(61.4151 177.048 0)
(61.9624 174.237 0)
(62.5411 171.522 0)
(63.1612 168.923 0)
(63.8283 166.442 0)
(64.5455 164.076 0)
(65.3134 161.82 0)
(66.13 159.673 0)
(66.9951 157.634 0)
(67.9118 155.704 0)
(68.8809 153.88 0)
(69.9006 152.16 0)
(70.9695 150.544 0)
(72.0878 149.033 0)
(73.2595 147.629 0)
(74.487 146.332 0)
(75.7722 145.145 0)
(77.1154 144.071 0)
(78.517 143.112 0)
(79.9822 142.269 0)
(81.5178 141.547 0)
(83.1325 140.952 0)
(84.8328 140.49 0)
(86.6242 140.163 0)
(88.5178 139.973 0)
(90.5285 139.922 0)
(92.6764 140.01 0)
(94.9814 140.232 0)
(97.4588 140.573 0)
(100.122 140.999 0)
(102.979 141.453 0)
(106.025 141.845 0)
(109.233 142.032 0)
(112.519 141.792 0)
(115.696 140.782 0)
(118.437 138.523 0)
(120.322 134.513 0)
(120.926 128.37 0)
(119.972 120.032 0)
(117.631 110.024 0)
(112.982 97.9934 0)
(-4.80248e-07 5.2773e-06 0)
(-1.63142e-07 3.10518e-06 0)
(-1.71883e-08 1.65107e-06 0)
(2.52887e-08 7.77096e-07 0)
(2.40503e-08 3.23036e-07 0)
(1.32876e-08 1.16368e-07 0)
(4.51602e-09 2.98864e-08 0)
(-1.88916e-10 -1.02148e-09 0)
(-4.80619e-10 -2.2282e-09 0)
(-3.95339e-10 -1.6239e-09 0)
(-1.31386e-10 -4.89676e-10 0)
(-1.73545e-12 -5.97464e-12 0)
(3.59094e-14 1.15784e-13 0)
(3.22004e-12 9.83159e-12 0)
(3.38613e-11 9.87903e-11 0)
(2.62792e-10 7.38119e-10 0)
(1.68133e-09 4.57507e-09 0)
(9.3575e-09 2.48014e-08 0)
(4.69666e-08 1.21819e-07 0)
(2.14515e-07 5.46746e-07 0)
(8.96514e-07 2.2536e-06 0)
(3.44448e-06 8.56794e-06 0)
(1.27968e-05 3.15951e-05 0)
(4.57729e-05 0.000112493 0)
(0.000151288 0.000371099 0)
(0.000459806 0.00112862 0)
(0.00129565 0.00319051 0)
(0.00344022 0.00852051 0)
(0.00862396 0.0215389 0)
(0.0204278 0.0515887 0)
(0.0459532 0.117688 0)
(0.0990841 0.258155 0)
(0.206769 0.549973 0)
(0.420242 1.14559 0)
(0.833239 2.33817 0)
(1.60812 4.66773 0)
(3.00313 9.06271 0)
(5.37096 16.9326 0)
(9.06986 29.978 0)
(14.253 49.4313 0)
(20.6368 74.8438 0)
(27.4821 103.386 0)
(33.9029 130.788 0)
(39.2954 153.567 0)
(43.5448 170.559 0)
(46.8634 182.435 0)
(49.4844 190.269 0)
(51.5571 194.936 0)
(53.2043 197.223 0)
(54.5298 197.786 0)
(55.6186 197.128 0)
(56.5339 195.614 0)
(57.3201 193.505 0)
(58.0114 191.001 0)
(58.6425 188.265 0)
(59.2465 185.424 0)
(59.8465 182.56 0)
(60.4591 179.729 0)
(61.1014 176.991 0)
(61.7844 174.367 0)
(62.514 171.862 0)
(63.2927 169.471 0)
(64.1201 167.189 0)
(64.9946 165.015 0)
(65.9171 162.949 0)
(66.8913 160.992 0)
(67.9176 159.142 0)
(68.9939 157.394 0)
(70.1187 155.749 0)
(71.2934 154.209 0)
(72.5227 152.776 0)
(73.8092 151.451 0)
(75.1537 150.233 0)
(76.5564 149.126 0)
(78.0186 148.13 0)
(79.5465 147.248 0)
(81.1478 146.485 0)
(82.8304 145.844 0)
(84.5999 145.329 0)
(86.4614 144.942 0)
(88.4261 144.681 0)
(90.5085 144.547 0)
(92.7266 144.535 0)
(95.0961 144.635 0)
(97.6266 144.821 0)
(100.324 145.051 0)
(103.183 145.255 0)
(106.182 145.325 0)
(109.263 145.092 0)
(112.296 144.298 0)
(115.03 142.551 0)
(117.052 139.321 0)
(117.855 134.075 0)
(116.93 126.419 0)
(113.931 116.316 0)
(108.939 104.298 0)
(100.751 89.817 0)
(-4.51157e-07 5.22108e-06 0)
(-1.63456e-07 3.04486e-06 0)
(-2.69673e-08 1.60499e-06 0)
(1.62038e-08 7.49813e-07 0)
(1.85079e-08 3.09815e-07 0)
(1.07042e-08 1.1101e-07 0)
(3.67228e-09 2.80418e-08 0)
(-1.83859e-10 -1.1283e-09 0)
(-4.24139e-10 -2.20563e-09 0)
(-3.45206e-10 -1.57621e-09 0)
(-1.08508e-10 -4.46273e-10 0)
(-7.15234e-13 -2.70096e-12 0)
(7.18531e-14 2.52851e-13 0)
(3.14461e-12 1.04336e-11 0)
(3.33109e-11 1.05211e-10 0)
(2.58475e-10 7.83356e-10 0)
(1.65369e-09 4.8413e-09 0)
(9.20413e-09 2.6178e-08 0)
(4.6203e-08 1.283e-07 0)
(2.11004e-07 5.74571e-07 0)
(8.81549e-07 2.3631e-06 0)
(3.3853e-06 8.96477e-06 0)
(1.25819e-05 3.30219e-05 0)
(4.50061e-05 0.00011742 0)
(0.000148601 0.000386488 0)
(0.000450748 0.00117187 0)
(0.00126842 0.00330526 0)
(0.00336424 0.00881031 0)
(0.00842446 0.0222327 0)
(0.0199351 0.0531682 0)
(0.0448059 0.121138 0)
(0.0965433 0.265469 0)
(0.201346 0.565149 0)
(0.408961 1.17652 0)
(0.810248 2.40003 0)
(1.56227 4.78887 0)
(2.91421 9.29354 0)
(5.2048 17.3557 0)
(8.77509 30.7126 0)
(13.7654 50.6186 0)
(19.8959 76.6086 0)
(26.4549 105.789 0)
(32.5977 133.807 0)
(37.7568 157.125 0)
(41.8336 174.571 0)
(45.036 186.828 0)
(47.5843 194.97 0)
(49.6179 199.874 0)
(51.2527 202.34 0)
(52.5886 203.037 0)
(53.7059 202.477 0)
(54.6622 201.03 0)
(55.4978 198.963 0)
(56.2444 196.482 0)
(56.9354 193.753 0)
(57.6023 190.907 0)
(58.2661 188.029 0)
(58.9423 185.18 0)
(59.6476 182.42 0)
(60.3932 179.774 0)
(61.185 177.245 0)
(62.0244 174.829 0)
(62.9108 172.521 0)
(63.8431 170.32 0)
(64.8231 168.228 0)
(65.8546 166.244 0)
(66.9374 164.365 0)
(68.0694 162.589 0)
(69.2497 160.915 0)
(70.4803 159.346 0)
(71.7663 157.882 0)
(73.1098 156.524 0)
(74.5112 155.273 0)
(75.9708 154.128 0)
(77.4902 153.092 0)
(79.0765 152.166 0)
(80.7371 151.351 0)
(82.4788 150.653 0)
(84.3058 150.07 0)
(86.2215 149.6 0)
(88.2345 149.238 0)
(90.3564 148.977 0)
(92.5997 148.806 0)
(94.9716 148.702 0)
(97.4684 148.623 0)
(100.076 148.503 0)
(102.762 148.24 0)
(105.46 147.679 0)
(108.041 146.581 0)
(110.272 144.59 0)
(111.754 141.188 0)
(111.909 135.728 0)
(110.091 127.629 0)
(105.718 116.567 0)
(98.5042 102.723 0)
(88.5892 86.8368 0)
(74.9429 68.6105 0)
(-4.3587e-07 5.18619e-06 0)
(-1.67756e-07 2.99212e-06 0)
(-3.6907e-08 1.55963e-06 0)
(7.76582e-09 7.20552e-07 0)
(1.34336e-08 2.95099e-07 0)
(8.32718e-09 1.04854e-07 0)
(2.8859e-09 2.58327e-08 0)
(-1.76392e-10 -1.24252e-09 0)
(-3.70991e-10 -2.18289e-09 0)
(-2.95885e-10 -1.51239e-09 0)
(-8.50611e-11 -3.88347e-10 0)
(-3.05696e-14 -1.27272e-13 0)
(8.69285e-14 3.35341e-13 0)
(3.15815e-12 1.14318e-11 0)
(3.34221e-11 1.14688e-10 0)
(2.58894e-10 8.49366e-10 0)
(1.65439e-09 5.22631e-09 0)
(9.19891e-09 2.81527e-08 0)
(4.61427e-08 1.37531e-07 0)
(2.10519e-07 6.13919e-07 0)
(8.78477e-07 2.51686e-06 0)
(3.36892e-06 9.51809e-06 0)
(1.25211e-05 3.50037e-05 0)
(4.47662e-05 0.000124225 0)
(0.00014751 0.000407533 0)
(0.000445985 0.00123026 0)
(0.00125227 0.00345891 0)
(0.0033153 0.00919489 0)
(0.00828709 0.0231445 0)
(0.0195769 0.0552217 0)
(0.043936 0.125571 0)
(0.0945538 0.274752 0)
(0.196995 0.584186 0)
(0.399752 1.21493 0)
(0.791293 2.47643 0)
(1.5244 4.93836 0)
(2.84095 9.57917 0)
(5.06801 17.8801 0)
(8.53061 31.6167 0)
(13.3535 52.0516 0)
(19.2534 78.6692 0)
(25.5366 108.477 0)
(31.3969 137.036 0)
(36.3083 160.792 0)
(40.1924 178.593 0)
(43.2598 191.163 0)
(45.72 199.577 0)
(47.7023 204.706 0)
(49.318 207.36 0)
(50.66 208.207 0)
(51.8006 207.754 0)
(52.7917 206.378 0)
(53.6701 204.353 0)
(54.4669 201.893 0)
(55.2142 199.171 0)
(55.9415 196.322 0)
(56.667 193.432 0)
(57.4059 190.569 0)
(58.1743 187.792 0)
(58.9827 185.126 0)
(59.8363 182.574 0)
(60.7358 180.133 0)
(61.6806 177.799 0)
(62.6704 175.573 0)
(63.7074 173.454 0)
(64.7949 171.44 0)
(65.9326 169.531 0)
(67.1186 167.723 0)
(68.3526 166.017 0)
(69.6368 164.414 0)
(70.976 162.912 0)
(72.3716 161.513 0)
(73.8238 160.217 0)
(75.3326 159.023 0)
(76.8993 157.929 0)
(78.5302 156.934 0)
(80.2315 156.038 0)
(82.0087 155.242 0)
(83.8634 154.544 0)
(85.7964 153.934 0)
(87.8131 153.403 0)
(89.9211 152.937 0)
(92.1248 152.514 0)
(94.4155 152.091 0)