/*--------------------------------*- C++ -*----------------------------------*\
  =========                 |
  \\      /  F ield         | OpenFOAM: The Open Source CFD Toolbox
   \\    /   O peration     | Website:  https://openfoam.org
    \\  /    A nd           | Version:  7
     \\/     M anipulation  |
\*---------------------------------------------------------------------------*/
FoamFile
{
    version     2.0;
    format      ascii;
    class       volVectorField;
    location    "0";
    object      Fc;
}
// * * * * * * * * * * * * * * * * * * * * * * * * * * * * * * * * * * * * * //

dimensions      [1 -2 -2 0 0 0 0];

internalField   nonuniform List<vector> 
58002
(
(0 0 0)
(0 0 0)
(0 0 0)
(0 0 0)
(0 0 0)
(0 0 0)
(0 0 0)
(0 0 0)
(0 0 0)
(0 0 0)
(0 0 0)
(-4.25717e-317 1.10796e-317 0)
(2.08861e-312 -4.1667e-313 0)
(4.58953e-309 -6.60234e-310 0)
(-2.35241e-304 2.29245e-305 0)
(-2.66944e-300 1.61724e-301 0)
(-1.80701e-296 5.80926e-298 0)
(-8.57367e-293 8.92459e-295 0)
(-2.89832e-289 -1.76668e-291 0)
(-7.07544e-286 -1.32472e-287 0)
(-1.26285e-282 -3.58567e-284 0)
(-1.69191e-279 -6.07258e-281 0)
(-1.79225e-276 -7.47614e-278 0)
(-1.5963e-273 -7.3632e-275 0)
(-1.29844e-270 -6.48738e-272 0)
(-7.3541e-268 -3.78477e-269 0)
(-3.15093e-265 -1.75285e-266 0)
(3.9683e-265 2.12558e-266 0)
(1.86027e-262 1.08026e-263 0)
(8.0673e-261 4.5284e-262 0)
(7.14405e-260 4.12181e-261 0)
(1.04854e-255 6.09882e-257 0)
(-4.23349e-255 -2.48991e-256 0)
(-3.63125e-250 -2.16101e-251 0)
(-1.22122e-249 -7.35456e-251 0)
(5.58759e-245 3.40581e-246 0)
(-3.33705e-245 -2.05906e-246 0)
(-3.32372e-240 -2.07655e-241 0)
(-9.67692e-239 -6.12275e-240 0)
(1.11847e-234 7.16815e-236 0)
(1.12326e-234 7.29298e-236 0)
(-6.07124e-229 -3.99407e-230 0)
(-1.68682e-228 -1.12456e-229 0)
(1.23752e-223 8.36203e-225 0)
(1.03336e-222 7.07819e-224 0)
(-1.18757e-218 -8.24745e-220 0)
(-2.88095e-217 -2.0289e-218 0)
(-3.46017e-217 -2.47159e-218 0)
(6.59856e-216 4.78164e-217 0)
(5.41971e-213 3.98524e-214 0)
(3.73049e-211 2.78427e-212 0)
(-2.27611e-209 -1.72475e-210 0)
(-1.12696e-204 -8.67297e-206 0)
(-5.82591e-203 -4.55508e-204 0)
(-2.40263e-201 -1.90925e-202 0)
(1.23107e-200 9.94683e-202 0)
(7.4681e-196 6.13827e-197 0)
(5.94957e-194 4.97719e-195 0)
(6.85067e-192 5.83652e-193 0)
(1.62112e-191 1.40749e-192 0)
(-3.66824e-189 -3.24804e-190 0)
(-1.41055e-184 -1.27482e-185 0)
(-6.19718e-183 -5.72217e-184 0)
(-6.98412e-183 -6.59547e-184 0)
(2.16226e-181 2.09089e-182 0)
(2.99055e-179 2.96516e-180 0)
(-3.01813e-177 -3.07308e-178 0)
(-1.31453e-175 -1.37689e-176 0)
(-2.77791e-174 -2.99908e-175 0)
(-3.88593e-173 -4.33401e-174 0)
(-4.07756e-172 -4.71022e-173 0)
(-3.44642e-171 -4.13572e-172 0)
(-2.46189e-170 -3.07958e-171 0)
(-1.54189e-169 -2.01865e-170 0)
(-7.97483e-169 -1.09788e-169 0)
(-1.89687e-168 -2.76125e-169 0)
(-2.07786e-168 -3.21956e-169 0)
(-1.41147e-168 -2.34653e-169 0)
(2.63037e-168 4.73774e-169 0)
(1.88464e-167 3.72236e-168 0)
(7.13098e-167 1.56809e-167 0)
(1.7749e-165 4.43153e-166 0)
(-8.64082e-151 -2.51449e-151 0)
(7.08411e-136 2.49163e-136 0)
(5.10718e-137 2.29122e-137 0)
(1.45944e-145 9.1211e-146 0)
(-7.9381e-91 -8.22026e-91 0)
(7.63784e-79 2.2511e-78 0)
(7.16954e-34 -2.74877e-33 0)
(6.10726e-18 -7.52882e-18 0)
(7.62873e-17 -5.9457e-17 0)
(-9.23256e-12 5.62068e-12 0)
(-769.987 418.239 0)
(-120266 164353 0)
(1.84993e+10 8.33829e+07 0)
(0 0 0)
(0 0 0)
(0 0 0)
(0 0 0)
(0 0 0)
(0 0 0)
(0 0 0)
(0 0 0)
(0 0 0)
(0 0 0)
(0 0 0)
(3.82794e-315 -1.00266e-315 0)
(1.04477e-310 -2.10629e-311 0)
(1.52201e-306 -2.22878e-307 0)
(1.10094e-302 -1.10698e-303 0)
(4.0628e-299 -2.6099e-300 0)
(7.72426e-296 -2.8113e-297 0)
(5.31843e-293 -8.12198e-295 0)
(-1.45086e-289 -8.91409e-293 0)
(-5.93604e-286 -7.50004e-288 0)
(-1.19477e-282 -2.59574e-284 0)
(-1.66064e-279 -4.76496e-281 0)
(-1.78128e-276 -6.06207e-278 0)
(-1.59357e-273 -6.06326e-275 0)
(-1.2979e-270 -5.38199e-272 0)
(-7.35413e-268 -3.16e-269 0)
(-3.15028e-265 -1.45902e-266 0)
(3.96405e-265 1.79677e-266 0)
(1.8558e-262 8.98792e-264 0)
(8.03625e-261 3.84499e-262 0)
(7.11642e-260 3.47941e-261 0)
(1.04537e-255 5.16544e-257 0)
(-4.21203e-255 -2.10439e-256 0)
(-3.61743e-250 -1.82792e-251 0)
(-1.21921e-249 -6.23239e-251 0)
(5.57406e-245 2.88325e-246 0)
(-3.29747e-245 -1.72632e-246 0)
(-3.30889e-240 -1.75378e-241 0)
(-9.65818e-239 -5.18375e-240 0)
(1.11605e-234 6.06724e-236 0)
(1.12369e-234 6.18868e-236 0)
(-6.04743e-229 -3.37487e-230 0)
(-1.68586e-228 -9.53497e-230 0)
(1.23141e-223 7.05993e-225 0)
(1.03182e-222 5.99765e-224 0)
(-1.18146e-218 -6.9642e-220 0)
(-2.87397e-217 -1.71833e-218 0)
(-3.46336e-217 -2.1009e-218 0)
(6.56125e-216 4.03917e-217 0)
(5.38846e-213 3.36744e-214 0)
(3.72259e-211 2.3624e-212 0)
(-2.2623e-209 -1.45843e-210 0)
(-1.11998e-204 -7.33756e-206 0)
(-5.78943e-203 -3.85628e-204 0)
(-2.39687e-201 -1.624e-202 0)
(1.22042e-200 8.41583e-202 0)
(7.41441e-196 5.20685e-197 0)
(5.90597e-194 4.22667e-195 0)
(6.81248e-192 4.97226e-193 0)
(1.62192e-191 1.20835e-192 0)
(-3.63736e-189 -2.76876e-190 0)
(-1.39839e-184 -1.08877e-185 0)
(-6.17549e-183 -4.92406e-184 0)
(-7.00319e-183 -5.72652e-184 0)
(2.13955e-181 1.79697e-182 0)
(2.9799e-179 2.57518e-180 0)
(-2.98519e-177 -2.65968e-178 0)
(-1.30049e-175 -1.19728e-176 0)
(-2.74752e-174 -2.62042e-175 0)
(-3.84304e-173 -3.80812e-174 0)
(-4.03387e-172 -4.16685e-173 0)
(-3.41054e-171 -3.68651e-172 0)
(-2.43666e-170 -2.76816e-171 0)
(-1.52473e-169 -1.82972e-170 0)
(-7.90504e-169 -1.00794e-169 0)
(-1.89975e-168 -2.59132e-169 0)
(-2.09506e-168 -3.08175e-169 0)
(-1.44308e-168 -2.3109e-169 0)
(2.55875e-168 4.51159e-169 0)
(1.8551e-167 3.65119e-168 0)
(1.32461e-164 2.95954e-165 0)
(-2.45335e-149 -6.35507e-150 0)
(7.95249e-135 2.454e-135 0)
(-6.21344e-120 -2.36845e-120 0)
(8.75098e-105 4.3374e-105 0)
(-1.02772e-89 -7.17091e-90 0)
(1.98704e-75 2.25387e-75 0)
(-7.99214e-61 -2.13304e-60 0)
(4.18637e-35 -5.49374e-34 0)
(4.1328e-18 -8.96352e-18 0)
(6.35268e-17 -8.23155e-17 0)
(-9.17812e-12 9.18659e-12 0)
(-624.202 559.765 0)
(-68944.1 177412 0)
(1.84099e+10 8.20846e+07 0)
(0 0 0)
(0 0 0)
(0 0 0)
(0 0 0)
(0 0 0)
(0 0 0)
(0 0 0)
(0 0 0)
(0 0 0)
(0 0 0)
(0 0 0)
(-1.42578e-314 3.75258e-315 0)
(6.92279e-311 -1.40744e-311 0)
(2.5503e-306 -3.7908e-307 0)
(3.68546e-302 -3.80732e-303 0)
(2.88525e-298 -1.95019e-299 0)
(1.17311e-294 -4.73621e-296 0)
(2.45259e-291 -4.87819e-293 0)
(2.73468e-288 -1.26985e-290 0)
(1.91018e-285 1.29045e-287 0)
(5.77761e-283 8.81653e-285 0)
(-8.10021e-280 -1.75728e-281 0)
(-1.44731e-276 -3.84337e-278 0)
(-1.49355e-273 -4.50789e-275 0)
(-1.27394e-270 -4.23175e-272 0)
(-7.31917e-268 -2.5379e-269 0)
(-3.12074e-265 -1.16756e-266 0)
(4.14926e-265 1.54018e-266 0)
(1.85609e-262 7.3119e-264 0)
(7.97726e-261 3.15437e-262 0)
(7.04905e-260 2.84872e-261 0)
(1.03982e-255 4.24815e-257 0)
(-4.13903e-255 -1.70907e-256 0)
(-3.58311e-250 -1.49551e-251 0)
(-1.21793e-249 -5.13956e-251 0)
(5.55169e-245 2.36968e-246 0)
(-3.23218e-245 -1.39587e-246 0)
(-3.2735e-240 -1.43085e-241 0)
(-9.6211e-239 -4.25774e-240 0)
(1.10973e-234 4.97367e-236 0)
(1.12001e-234 5.08502e-236 0)
(-6.00748e-229 -2.76368e-230 0)
(-1.68279e-228 -7.84603e-230 0)
(1.22125e-223 5.77243e-225 0)
(1.02852e-222 4.92953e-224 0)
(-1.17047e-218 -5.69003e-220 0)
(-2.85972e-217 -1.41046e-218 0)
(-3.46554e-217 -1.73474e-218 0)
(6.48757e-216 3.297e-217 0)
(5.33585e-213 2.75411e-214 0)
(3.70271e-211 1.9419e-212 0)
(-2.23737e-209 -1.19281e-210 0)
(-1.10713e-204 -6.0033e-206 0)
(-5.72234e-203 -3.15766e-204 0)
(-2.3836e-201 -1.33939e-202 0)
(1.20235e-200 6.88492e-202 0)
(7.31532e-196 4.27209e-197 0)
(5.82334e-194 3.47139e-195 0)
(6.73529e-192 4.10251e-193 0)
(1.62029e-191 1.00956e-192 0)
(-3.57778e-189 -2.28324e-190 0)
(-1.37353e-184 -8.99061e-186 0)
(-6.11958e-183 -4.1151e-184 0)
(-7.01925e-183 -4.85774e-184 0)
(2.09335e-181 1.49399e-182 0)
(2.95138e-179 2.1771e-180 0)
(-2.91478e-177 -2.22801e-178 0)
(-1.26938e-175 -1.00833e-176 0)
(-2.67985e-174 -2.21937e-175 0)
(-3.74502e-173 -3.24538e-174 0)
(-3.92799e-172 -3.57657e-173 0)
(-3.31792e-171 -3.18916e-172 0)
(-2.36128e-170 -2.40863e-171 0)
(-1.49073e-169 -1.6235e-170 0)
(-8.63622e-169 -1.0111e-169 0)
(-1.78211e-168 -2.26066e-169 0)
(-1.35674e-168 -1.88177e-169 0)
(-1.93264e-168 -2.96174e-169 0)
(-9.59029e-167 -1.64389e-167 0)
(-1.47375e-165 -2.86671e-166 0)
(-1.79417e-163 -4.02925e-164 0)
(-4.24113e-151 -1.1229e-151 0)
(3.65165e-136 1.16998e-136 0)
(1.93777e-126 7.7698e-127 0)
(1.34615e-105 7.06912e-106 0)
(-9.46135e-91 -6.95437e-91 0)
(7.68291e-76 8.82691e-76 0)
(4.07131e-60 9.24659e-60 0)
(-1.56113e-35 -2.09972e-34 0)
(1.55004e-18 -6.85676e-18 0)
(3.72882e-17 -8.06885e-17 0)
(-5.10434e-12 8.03907e-12 0)
(-447.569 612.279 0)
(-38229.7 156414 0)
(1.83212e+10 8.06712e+07 0)
(0 0 0)
(0 0 0)
(0 0 0)
(0 0 0)
(0 0 0)
(0 0 0)
(0 0 0)
(0 0 0)
(0 0 0)
(0 0 0)
(0 0 0)
(-3.49504e-314 9.24286e-315 0)
(-3.46797e-310 7.10964e-311 0)
(-1.26879e-306 1.91392e-307 0)
(1.81485e-302 -1.92491e-303 0)
(2.90055e-298 -2.05777e-299 0)
(2.06198e-294 -9.14468e-296 0)
(8.5646e-291 -2.09881e-292 0)
(2.1424e-287 -2.12034e-289 0)
(3.08665e-284 2.72473e-287 0)
(2.61714e-281 2.30363e-283 0)
(1.34694e-278 1.98065e-280 0)
(4.39987e-276 8.39889e-278 0)
(7.51283e-274 1.67703e-275 0)
(-8.03305e-271 -2.00644e-272 0)
(-6.67235e-268 -1.75614e-269 0)
(-2.68238e-265 -7.65495e-267 0)
(7.84648e-265 2.24383e-266 0)
(1.93788e-262 5.86219e-264 0)
(8.04198e-261 2.46321e-262 0)
(7.04892e-260 2.20605e-261 0)
(1.03285e-255 3.26695e-257 0)
(-4.06983e-255 -1.30041e-256 0)
(-3.53879e-250 -1.14247e-251 0)
(-1.20802e-249 -3.94166e-251 0)
(5.51712e-245 1.82053e-246 0)
(-3.06132e-245 -1.02202e-246 0)
(-3.259e-240 -1.10125e-241 0)
(-9.55037e-239 -3.26783e-240 0)
(1.11051e-234 3.84925e-236 0)
(1.13119e-234 3.97321e-236 0)
(-5.95208e-229 -2.11921e-230 0)
(-1.68095e-228 -6.06861e-230 0)
(1.20928e-223 4.42829e-225 0)
(1.02347e-222 3.80274e-224 0)
(-1.15995e-218 -4.37452e-220 0)
(-2.84422e-217 -1.08915e-218 0)
(-3.4612e-217 -1.3464e-218 0)
(6.40653e-216 2.53271e-217 0)
(5.25371e-213 2.11187e-214 0)
(3.68557e-211 1.50728e-212 0)
(-2.21418e-209 -9.21841e-211 0)
(-1.09461e-204 -4.64259e-206 0)
(-5.65656e-203 -2.44591e-204 0)
(-2.3723e-201 -1.04669e-202 0)
(1.18332e-200 5.33243e-202 0)
(7.22267e-196 3.32783e-197 0)
(5.75339e-194 2.71357e-195 0)
(6.66814e-192 3.2237e-193 0)
(1.61499e-191 8.01492e-193 0)
(-3.52917e-189 -1.80098e-190 0)
(-1.35295e-184 -7.1127e-186 0)
(-6.0761e-183 -3.29768e-184 0)
(-7.03998e-183 -3.95362e-184 0)
(2.05721e-181 1.19862e-182 0)
(2.93074e-179 1.77672e-180 0)
(-2.85952e-177 -1.8096e-178 0)
(-1.24463e-175 -8.25165e-177 0)
(-2.62623e-174 -1.83143e-175 0)
(-3.66762e-173 -2.70231e-174 0)
(-3.84101e-172 -3.00505e-173 0)
(-3.25138e-171 -2.71599e-172 0)
(-2.70242e-170 -2.42517e-171 0)
(-1.38351e-169 -1.34303e-170 0)
(-2.00113e-168 -2.1175e-169 0)
(5.26263e-166 6.12247e-167 0)
(1.98762e-164 2.56706e-165 0)
(3.81572e-163 5.53097e-164 0)
(2.69898e-162 4.44573e-163 0)
(1.84493e-161 3.503e-162 0)
(-8.38556e-162 -1.86597e-162 0)
(-3.11387e-155 -8.28103e-156 0)
(-3.05271e-143 -9.9342e-144 0)
(1.42874e-128 5.85861e-129 0)
(1.0658e-121 5.72021e-122 0)
(-5.37107e-94 -3.97593e-94 0)
(1.41159e-77 1.56039e-77 0)
(-5.80829e-50 -1.10547e-49 0)
(1.88025e-34 8.87071e-34 0)
(1.09264e-19 -2.76186e-18 0)
(1.38977e-17 -5.89838e-17 0)
(-2.51592e-12 6.54982e-12 0)
(-287.364 592.405 0)
(-22800.3 134449 0)
(1.82345e+10 7.89939e+07 0)
(0 0 0)
(0 0 0)
(0 0 0)
(0 0 0)
(0 0 0)
(0 0 0)
(0 0 0)
(0 0 0)
(0 0 0)
(0 0 0)
(6.75498e-318 -2.16325e-318 0)
(-1.68826e-313 4.48605e-314 0)
(-4.34144e-309 8.97431e-310 0)
(-5.40332e-305 8.26992e-306 0)
(-3.68547e-301 4.01066e-302 0)
(-1.32521e-297 9.84594e-299 0)
(-1.99793e-294 9.65505e-296 0)
(3.11417e-291 -9.06878e-293 0)
(2.06673e-287 -3.13098e-289 0)
(5.12633e-284 -2.55739e-286 0)
(7.83223e-281 1.83717e-283 0)
(7.63817e-278 5.89268e-280 0)
(4.84806e-275 5.63266e-277 0)
(1.90905e-272 2.75803e-274 0)
(4.57733e-270 7.65089e-272 0)
(2.10034e-268 3.75447e-270 0)
(3.84008e-266 7.53516e-268 0)
(5.88369e-264 1.16453e-265 0)
(3.24395e-262 6.79378e-264 0)
(9.40815e-261 2.00331e-262 0)
(8.15913e-260 1.77374e-261 0)
(1.00505e-255 2.20671e-257 0)
(-4.75232e-255 -1.0532e-256 0)
(-5.00212e-250 -1.11974e-251 0)
(-5.03359e-250 -1.13862e-251 0)
(5.39976e-245 1.23538e-246 0)
(-3.25765e-245 -7.54308e-247 0)
(-3.4205e-240 -8.02098e-242 0)
(-1.03315e-238 -2.45508e-240 0)
(1.22895e-234 2.96104e-236 0)
(1.41439e-234 3.45692e-236 0)
(-5.87346e-229 -1.45687e-230 0)
(-1.67411e-228 -4.21603e-230 0)
(1.18809e-223 3.03924e-225 0)
(1.02093e-222 2.65403e-224 0)
(-1.14673e-218 -3.03102e-220 0)
(-2.82122e-217 -7.58597e-219 0)
(-3.45519e-217 -9.45709e-219 0)
(6.50635e-216 1.8139e-217 0)
(5.24891e-213 1.49159e-214 0)
(3.67784e-211 1.06618e-212 0)
(-2.19186e-209 -6.48768e-211 0)
(-1.08745e-204 -3.28966e-206 0)
(-5.68024e-203 -1.75811e-204 0)
(-2.37392e-201 -7.52683e-203 0)
(1.16363e-200 3.7845e-202 0)
(7.16666e-196 2.39446e-197 0)
(5.70956e-194 1.96296e-195 0)
(6.64007e-192 2.35344e-193 0)
(1.62061e-191 5.93366e-193 0)
(-3.50067e-189 -1.3271e-190 0)
(-1.34097e-184 -5.27686e-186 0)
(-6.05347e-183 -2.47962e-184 0)
(-7.06146e-183 -3.02021e-184 0)
(2.03865e-181 9.1354e-183 0)
(2.92312e-179 1.37751e-180 0)
(-2.8328e-177 -1.40962e-178 0)
(-1.23372e-175 -6.51139e-177 0)
(-2.60539e-174 -1.4656e-175 0)
(-3.64096e-173 -2.19455e-174 0)
(-3.87907e-172 -2.51969e-173 0)
(-3.70137e-171 -2.60728e-172 0)
(-2.47969e-170 -1.90714e-171 0)
(-1.16755e-169 -9.87711e-171 0)
(-6.71412e-168 -6.29812e-169 0)
(-2.42889e-162 -2.54867e-163 0)
(-3.05573e-161 -3.62152e-162 0)
(-7.95949e-161 -1.07682e-161 0)
(-1.16931e-161 -1.82717e-162 0)
(1.18617e-159 2.1693e-160 0)
(1.0544e-155 2.29081e-156 0)
(2.43203e-154 6.38588e-155 0)
(-1.92619e-144 -6.23687e-145 0)
(1.20253e-134 4.91895e-135 0)
(4.68772e-128 2.49606e-128 0)
(-4.80233e-98 -3.46046e-98 0)
(4.64988e-84 4.7847e-84 0)
(-8.98771e-56 -1.43413e-55 0)
(6.09699e-40 1.75597e-39 0)
(-1.77187e-20 -1.4049e-19 0)
(1.42922e-18 -3.0654e-17 0)
(-7.16815e-13 3.8727e-12 0)
(-160.643 528.595 0)
(-14327.4 107221 0)
(1.81499e+10 7.73017e+07 0)
(0 0 0)
(0 0 0)
(0 0 0)
(0 0 0)
(0 0 0)
(0 0 0)
(0 0 0)
(0 0 0)
(0 0 0)
(0 0 0)
(-1.008e-316 3.23714e-317 0)
(-3.4742e-312 9.27566e-313 0)
(-7.16702e-308 1.49374e-308 0)
(-8.33123e-304 1.29351e-304 0)
(-5.81514e-300 6.48878e-301 0)
(-2.48917e-296 1.93287e-297 0)
(-6.59323e-293 3.4484e-294 0)
(-1.11675e-289 3.76756e-291 0)
(-1.19353e-286 2.43507e-288 0)
(-7.58649e-284 8.23949e-286 0)
(7.13883e-282 -2.9356e-284 0)
(5.44345e-278 3.92289e-281 0)
(5.20907e-275 2.15601e-277 0)
(2.83671e-272 1.85879e-274 0)
(9.61184e-270 8.09751e-272 0)
(1.39455e-267 1.30429e-269 0)
(2.31673e-265 2.4701e-267 0)
(1.36659e-263 1.47536e-265 0)
(4.90315e-262 5.65143e-264 0)
(1.03383e-260 1.21371e-262 0)
(1.82446e-258 2.18436e-260 0)
(-2.34115e-257 -2.82572e-259 0)
(-2.40279e-254 -2.92176e-256 0)
(-1.69149e-250 -2.07689e-252 0)
(1.04342e-248 1.29467e-250 0)
(4.77959e-245 6.00204e-247 0)
(-5.67919e-245 -7.22774e-247 0)
(-8.24632e-240 -1.06488e-241 0)
(-2.98896e-238 -3.92065e-240 0)
(1.98869e-234 2.65226e-236 0)
(1.01886e-233 1.38265e-235 0)
(-5.92601e-229 -8.18924e-231 0)
(-1.66943e-228 -2.35101e-230 0)
(1.18858e-223 1.70708e-225 0)
(1.03368e-222 1.51527e-224 0)
(-1.1352e-218 -1.69988e-220 0)
(-2.83229e-217 -4.33626e-219 0)
(-3.52912e-217 -5.52983e-219 0)
(1.03044e-214 1.65424e-216 0)
(7.12876e-213 1.17393e-214 0)
(3.55428e-211 6.0118e-213 0)
(-2.16827e-209 -3.77234e-211 0)
(-3.80189e-204 -6.81447e-206 0)
(-8.46035e-203 -1.56497e-204 0)
(-2.54818e-201 -4.87379e-203 0)
(1.18403e-200 2.34654e-202 0)
(7.25664e-196 1.49359e-197 0)
(5.90841e-194 1.26616e-195 0)
(6.72657e-192 1.50499e-193 0)
(1.7279e-191 4.04837e-193 0)
(-3.47058e-189 -8.54301e-191 0)
(-1.33151e-184 -3.45569e-186 0)
(-6.0456e-183 -1.66065e-184 0)
(-7.07172e-183 -2.06437e-184 0)
(2.05754e-181 6.41127e-183 0)
(2.94629e-179 9.8454e-181 0)
(-2.83747e-177 -1.02188e-178 0)
(-1.23824e-175 -4.83117e-177 0)
(-2.62074e-174 -1.1139e-175 0)
(-3.66316e-173 -1.70598e-174 0)
(-5.87417e-172 -3.01586e-173 0)
(-5.05286e-171 -2.87831e-172 0)
(-3.13262e-170 -1.99331e-171 0)
(-3.43729e-168 -2.46064e-169 0)
(1.41228e-161 1.14602e-162 0)
(-1.75032e-160 -1.62302e-161 0)
(-7.3418e-159 -7.84663e-160 0)
(-6.99719e-158 -8.69995e-159 0)
(-3.31251e-157 -4.84013e-158 0)
(-5.59162e-157 -9.70915e-158 0)
(1.58355e-154 3.30825e-155 0)
(6.76626e-153 1.72469e-153 0)
(2.76237e-150 8.72935e-151 0)
(-5.74243e-141 -2.29192e-141 0)
(2.39004e-129 1.23162e-129 0)
(2.97942e-104 2.03609e-104 0)
(-1.1688e-90 -1.09541e-90 0)
(5.1141e-58 6.87062e-58 0)
(1.89419e-41 3.88733e-41 0)
(3.20744e-26 1.12027e-25 0)
(-1.37186e-18 -1.06373e-17 0)
(-1.13308e-14 2.20909e-12 0)
(-71.0049 447.395 0)
(-24936 219451 0)
(1.80668e+10 7.55246e+07 0)
(-2.02879e+10 1.59307e+08 0)
(227287 443420 0)
(93464 67418.9 0)
(37568.9 24913 0)
(17017 12110.6 0)
(7982.27 6792.86 0)
(3473.67 3985.63 0)
(1417.86 2622.3 0)
(419.95 1857.21 0)
(-34.9326 432.566 0)
(-5.26934 14.3048 0)
(-0.00834583 0.0142614 0)
(0.00012397 -0.000171487 0)
(-3.79916e-06 4.79157e-06 0)
(-1.64089e-06 2.02893e-06 0)
(-1.30147e-06 1.66021e-06 0)
(-9.09242e-07 1.24443e-06 0)
(-6.40914e-07 9.71644e-07 0)
(-4.22568e-07 7.28736e-07 0)
(-2.01213e+10 1.58708e+08 0)
(106608 465550 0)
(75166.3 94080.6 0)
(32488 35388.8 0)
(15086 17019.9 0)
(7139.37 9280.47 0)
(3111.56 5252.26 0)
(1261.96 3329.9 0)
(355.901 2265.14 0)
(-40.6584 506.771 0)
(-5.25007 16.3381 0)
(-0.00819574 0.0158842 0)
(0.000120569 -0.00018579 0)
(-3.66179e-06 5.05428e-06 0)
(-1.57336e-06 2.09425e-06 0)
(-1.24507e-06 1.68328e-06 0)
(-8.69562e-07 1.24201e-06 0)
(-6.14587e-07 9.56919e-07 0)
(-4.07987e-07 7.10284e-07 0)
(-1.99528e+10 1.58171e+08 0)
(43215.8 401549 0)
(54895.6 112056 0)
(25713.8 43509 0)
(12316.5 21077.8 0)
(5876.57 11373.1 0)
(2544.97 6327.94 0)
(1005.33 3958.62 0)
(237.02 2621.67 0)
(-55.1911 566.208 0)
(-5.44564 18.1182 0)
(-0.0083117 0.0175711 0)
(0.000120548 -0.000201761 0)
(-3.5986e-06 5.34086e-06 0)
(-1.53205e-06 2.16694e-06 0)
(-1.20835e-06 1.7143e-06 0)
(-8.42774e-07 1.24669e-06 0)
(-5.96443e-07 9.48416e-07 0)
(-3.97821e-07 6.96686e-07 0)
(-1.9786e+10 1.57062e+08 0)
(15460.5 337681 0)
(35762.9 121772 0)
(18450.5 49856.8 0)
(9044.69 24211.2 0)
(4311.8 12949.7 0)
(1825.74 7152.85 0)
(666.303 4483.17 0)
(73.0945 2901.14 0)
(-75.6532 600.516 0)
(-5.79881 19.4667 0)
(-0.00861477 0.0191616 0)
(0.000123245 -0.000218627 0)
(-3.59812e-06 5.64198e-06 0)
(-1.51309e-06 2.24445e-06 0)
(-1.18822e-06 1.75125e-06 0)
(-8.26695e-07 1.25675e-06 0)
(-5.85021e-07 9.44591e-07 0)
(-3.91261e-07 6.86666e-07 0)
(-1.96209e+10 1.55904e+08 0)
(5381.69 293676 0)
(18886.2 125751 0)
(10796 54210.7 0)
(5461.12 26297.1 0)
(2575.92 13934.2 0)
(1015.73 7691.93 0)
(268.88 4904.01 0)
(-119.969 3071.08 0)
(-97.993 604.418 0)
(-6.19184 20.0919 0)
(-0.00894931 0.0202984 0)
(0.000128149 -0.000235541 0)
(-3.6516e-06 5.94837e-06 0)
(-1.51349e-06 2.32444e-06 0)
(-1.18229e-06 1.79234e-06 0)
(-8.19628e-07 1.27071e-06 0)
(-5.79159e-07 9.44135e-07 0)
(-3.87636e-07 6.79159e-07 0)
(-1.94567e+10 1.54742e+08 0)
(4950.49 317211 0)
(3431.87 126888 0)
(2831.71 55826.6 0)
(1753.29 27136.6 0)
(805.352 14292.1 0)
(180.604 7958.48 0)
(-165.892 5212.91 0)
(-319.6 3108.23 0)
(-117.639 577.274 0)
(-6.51577 19.8598 0)
(-0.00933961 0.0210538 0)
(0.00013481 -0.000251614 0)
(-3.75195e-06 6.25082e-06 0)
(-1.53081e-06 2.40465e-06 0)
(-1.18865e-06 1.83586e-06 0)
(-8.20204e-07 1.2872e-06 0)
(-5.7791e-07 9.45887e-07 0)
(-3.86378e-07 6.73246e-07 0)
(-2.64599e-07 5.2959e-07 0)
(-1.55331e-07 3.66561e-07 0)
(-8.41438e-08 2.37371e-07 0)
(-4.14752e-08 1.41497e-07 0)
(-1.79588e-08 7.48772e-08 0)
(-6.19999e-09 3.19187e-08 0)
(-1.19298e-09 7.66619e-09 0)
(5.51617e-11 -4.47826e-10 0)
(1.39619e-10 -1.4519e-09 0)
(8.87947e-11 -1.20182e-09 0)
(3.8868e-11 -6.97487e-10 0)
(7.56427e-12 -1.83762e-10 0)
(1.56742e-13 -5.26935e-12 0)
(-3.10149e-14 1.4706e-12 0)
(-2.47538e-13 1.66468e-11 0)
(-1.29695e-12 1.19971e-10 0)
(-6.79829e-12 7.83352e-10 0)
(-3.7546e-11 4.53612e-09 0)
(-2.25296e-10 2.3862e-08 0)
(-1.38881e-09 1.15398e-07 0)
(-8.21223e-09 5.15047e-07 0)
(-4.48192e-08 2.12615e-06 0)
(-2.28994e-07 8.36647e-06 0)
(-1.1049e-06 3.17833e-05 0)
(-4.91517e-06 0.000113715 0)
(-1.99965e-05 0.000379211 0)
(-7.46761e-05 0.00118001 0)
(-0.000256087 0.00341937 0)
(-0.000815905 0.00931565 0)
(-0.00242211 0.0238868 0)
(-0.00673761 0.0578866 0)
(-0.017764 0.133935 0)
(-0.044981 0.2995 0)
(-0.110481 0.653263 0)
(-0.26437 1.39538 0)
(-0.61562 2.9157 0)
(-1.38383 5.91657 0)
(-2.95018 11.4751 0)
(-5.81309 20.7894 0)
(-10.316 34.406 0)
(-16.2212 51.3412 0)
(-22.5741 69.1066 0)
(-28.173 84.9673 0)
(-32.2433 97.34 0)
(-34.6701 106.127 0)
(-35.7302 112.033 0)
(-35.7574 115.792 0)
(-35.0266 117.954 0)
(-33.7627 118.949 0)
(-32.1392 119.116 0)
(-30.2833 118.708 0)
(-28.2842 117.904 0)
(-26.2008 116.83 0)
(-24.0756 115.579 0)
(-21.938 114.225 0)
(-19.8078 112.833 0)
(-17.6961 111.445 0)
(-15.6055 110.088 0)
(-13.5381 108.788 0)
(-11.4914 107.557 0)
(-9.46113 106.398 0)
(-7.44385 105.311 0)
(-5.43464 104.295 0)
(-3.43107 103.346 0)
(-1.43123 102.465 0)
(0.568633 101.654 0)
(2.57047 100.915 0)
(4.57675 100.247 0)
(6.58972 99.65 0)
(8.61103 99.1257 0)
(10.6447 98.6764 0)
(12.6929 98.3054 0)
(14.7593 98.0157 0)
(16.8475 97.8101 0)
(18.9611 97.6916 0)
(21.1067 97.6644 0)
(23.2901 97.7343 0)
(25.5194 97.9077 0)
(27.8039 98.1904 0)
(30.1541 98.5873 0)
(32.5852 99.1043 0)
(35.1139 99.7482 0)
(37.7619 100.526 0)
(40.5556 101.44 0)
(43.5246 102.489 0)
(46.7062 103.661 0)
(50.14 104.933 0)
(53.8705 106.265 0)
(57.9465 107.589 0)
(62.4058 108.797 0)
(67.2636 109.715 0)
(72.478 110.083 0)
(77.915 109.547 0)
(83.3283 107.704 0)
(88.3249 104.163 0)
(92.4279 98.7058 0)
(95.2964 91.5367 0)
(-2.58442e-07 5.12604e-07 0)
(-1.54226e-07 3.53541e-07 0)
(-8.53156e-08 2.28761e-07 0)
(-4.31191e-08 1.36512e-07 0)
(-1.92145e-08 7.23704e-08 0)
(-6.84875e-09 3.08834e-08 0)
(-1.36182e-09 7.39263e-09 0)
(6.92257e-11 -4.54577e-10 0)
(1.79099e-10 -1.42847e-09 0)
(1.21759e-10 -1.18309e-09 0)
(5.78581e-11 -6.85735e-10 0)
(1.24498e-11 -1.79688e-10 0)
(2.96299e-13 -5.17589e-12 0)
(-7.21125e-14 1.50537e-12 0)
(-6.83903e-13 1.66982e-11 0)
(-4.35311e-12 1.20429e-10 0)
(-2.61703e-11 7.87e-10 0)
(-1.46332e-10 4.56021e-09 0)
(-7.79909e-10 2.4001e-08 0)
(-3.98734e-09 1.16117e-07 0)
(-1.9447e-08 5.18425e-07 0)
(-8.97458e-08 2.14068e-06 0)
(-4.00285e-07 8.426e-06 0)
(-1.73554e-06 3.20182e-05 0)
(-7.1022e-06 0.00011458 0)
(-2.7075e-05 0.000382286 0)
(-9.60621e-05 0.0011901 0)
(-0.000316253 0.00344978 0)
(-0.000975032 0.00940105 0)
(-0.00281808 0.0241109 0)
(-0.00766862 0.0584426 0)
(-0.0198543 0.135261 0)
(-0.049519 0.302587 0)
(-0.120094 0.660322 0)
(-0.28432 1.41127 0)
(-0.656122 2.95082 0)
(-1.46365 5.99202 0)
(-3.1002 11.6294 0)
(-6.07551 21.0827 0)
(-10.7337 34.9146 0)
(-16.8196 52.1386 0)
(-23.3475 70.2406 0)
(-29.0874 86.4459 0)
(-33.2531 99.1389 0)
(-35.7343 108.209 0)
(-36.8187 114.359 0)
(-36.8491 118.327 0)
(-36.1062 120.663 0)
(-34.8196 121.803 0)
(-33.1666 122.089 0)
(-31.2768 121.777 0)
(-29.2408 121.05 0)
(-27.1185 120.037 0)
(-24.9533 118.833 0)
(-22.7756 117.516 0)
(-20.6055 116.153 0)
(-18.4541 114.789 0)
(-16.3242 113.448 0)
(-14.218 112.161 0)
(-12.1331 110.941 0)
(-10.0651 109.79 0)
(-8.01042 108.709 0)
(-5.96397 107.696 0)
(-3.92328 106.749 0)
(-1.88634 105.868 0)
(0.150803 105.057 0)
(2.19028 104.316 0)
(4.23472 103.645 0)
(6.28651 103.044 0)
(8.34749 102.513 0)
(10.422 102.057 0)
(12.5125 101.677 0)
(14.6227 101.377 0)
(16.7565 101.157 0)
(18.9177 101.022 0)
(21.1134 100.976 0)
(23.3496 101.023 0)
(25.6347 101.168 0)
(27.978 101.417 0)
(30.3903 101.772 0)
(32.8871 102.239 0)
(35.4849 102.823 0)
(38.2051 103.528 0)
(41.0725 104.353 0)
(44.1148 105.29 0)
(47.3665 106.325 0)
(50.8626 107.429 0)
(54.6402 108.556 0)
(58.7375 109.633 0)
(63.1761 110.545 0)
(67.9499 111.117 0)
(72.9913 111.097 0)
(78.1399 110.154 0)
(83.1326 107.928 0)
(87.5848 104.091 0)
(91.0688 98.4964 0)
(93.3349 91.3929 0)
(-2.541e-07 4.98832e-07 0)
(-1.5347e-07 3.4224e-07 0)
(-8.61934e-08 2.20697e-07 0)
(-4.43562e-08 1.31445e-07 0)
(-2.01612e-08 6.95497e-08 0)
(-7.32485e-09 2.95365e-08 0)
(-1.46903e-09 6.94323e-09 0)
(8.80175e-11 -4.88317e-10 0)
(2.15621e-10 -1.40432e-09 0)
(1.51699e-10 -1.15807e-09 0)
(7.46165e-11 -6.65287e-10 0)
(1.65043e-11 -1.70802e-10 0)
(4.17429e-13 -4.96682e-12 0)
(-1.20109e-13 1.62125e-12 0)
(-1.12697e-12 1.69539e-11 0)
(-7.45471e-12 1.22273e-10 0)
(-4.58671e-11 7.99612e-10 0)
(-2.57121e-10 4.63474e-09 0)
(-1.34557e-09 2.43931e-08 0)
(-6.64135e-09 1.17987e-07 0)
(-3.09383e-08 5.26596e-07 0)
(-1.3577e-07 2.1736e-06 0)
(-5.7612e-07 8.55355e-06 0)
(-2.38446e-06 3.24977e-05 0)
(-9.35746e-06 0.000116268 0)
(-3.44146e-05 0.000388172 0)
(-0.000118358 0.00120904 0)
(-0.000379258 0.00350532 0)
(-0.00114225 0.0095521 0)
(-0.00323502 0.0244922 0)
(-0.00865022 0.0593502 0)
(-0.0220618 0.137345 0)
(-0.0543226 0.307277 0)
(-0.130299 0.670719 0)
(-0.305564 1.43401 0)
(-0.699405 2.99975 0)
(-1.54915 6.09415 0)
(-3.26064 11.831 0)
(-6.35387 21.4488 0)
(-11.1704 35.5177 0)
(-17.4334 53.0385 0)
(-24.1251 71.4671 0)
(-29.9908 87.9946 0)
(-34.2381 100.983 0)
(-36.7647 110.316 0)
(-37.8692 116.697 0)
(-37.9017 120.865 0)
(-37.1477 123.368 0)
(-35.8409 124.646 0)
(-34.1618 125.046 0)
(-32.242 124.829 0)
(-30.1729 124.179 0)
(-28.0151 123.225 0)
(-25.8131 122.066 0)
(-23.5983 120.787 0)
(-21.3911 119.454 0)
(-19.2024 118.113 0)
(-17.0351 116.789 0)
(-14.8917 115.515 0)
(-12.7699 114.304 0)
(-10.6654 113.162 0)
(-8.57442 112.088 0)
(-6.49164 111.079 0)
(-4.41463 110.132 0)
(-2.34139 109.252 0)
(-0.267722 108.44 0)
(1.80868 107.698 0)
(3.89055 107.024 0)
(5.98036 106.416 0)
(8.08018 105.879 0)
(10.1946 105.415 0)
(12.3265 105.027 0)
(14.4793 104.715 0)
(16.6572 104.48 0)
(18.8642 104.327 0)
(21.1081 104.259 0)
(23.3949 104.282 0)
(25.7329 104.398 0)
(28.1316 104.611 0)
(30.6018 104.924 0)
(33.1591 105.34 0)
(35.8198 105.863 0)
(38.6044 106.494 0)
(41.5359 107.229 0)
(44.6395 108.056 0)
(47.947 108.957 0)
(51.4885 109.899 0)
(55.2939 110.833 0)
(59.3909 111.68 0)
(63.7868 112.323 0)
(68.4567 112.588 0)
(73.3129 112.231 0)
(78.1768 110.943 0)
(82.7764 108.4 0)
(86.738 104.319 0)
(89.677 98.604 0)
(91.4163 91.5315 0)
(-2.51232e-07 4.87345e-07 0)
(-1.52928e-07 3.3198e-07 0)
(-8.68068e-08 2.12959e-07 0)
(-4.52189e-08 1.26246e-07 0)
(-2.08107e-08 6.64349e-08 0)
(-7.62514e-09 2.79142e-08 0)
(-1.50959e-09 6.34557e-09 0)
(1.12516e-10 -5.42998e-10 0)
(2.49358e-10 -1.37939e-09 0)
(1.78291e-10 -1.1269e-09 0)
(8.8619e-11 -6.36819e-10 0)
(1.94479e-11 -1.5778e-10 0)
(5.12891e-13 -4.65434e-12 0)
(-1.81396e-13 1.81977e-12 0)
(-1.59432e-12 1.74321e-11 0)
(-1.07287e-11 1.25764e-10 0)
(-6.67038e-11 8.23169e-10 0)
(-3.74378e-10 4.77121e-09 0)
(-1.94423e-09 2.50987e-08 0)
(-9.44946e-09 1.21299e-07 0)
(-4.3091e-08 5.40803e-07 0)
(-1.84415e-07 2.22963e-06 0)
(-7.6201e-07 8.76595e-06 0)
(-3.07091e-06 3.32785e-05 0)
(-1.17431e-05 0.000118947 0)
(-4.22138e-05 0.00039733 0)
(-0.000142132 0.00123783 0)
(-0.000446604 0.00358815 0)
(-0.00132121 0.00977302 0)
(-0.00368121 0.0250386 0)
(-0.00970013 0.0606253 0)
(-0.024423 0.140219 0)
(-0.0594653 0.313629 0)
(-0.141239 0.68456 0)
(-0.328377 1.46377 0)
(-0.745967 3.06276 0)
(-1.64117 6.22331 0)
(-3.43271 12.0799 0)
(-6.64965 21.8877 0)
(-11.6274 36.2153 0)
(-18.0634 54.041 0)
(-24.907 72.7861 0)
(-30.8828 89.6135 0)
(-35.1978 102.874 0)
(-37.7609 112.451 0)
(-38.8811 119.051 0)
(-38.9145 123.407 0)
(-38.1504 126.069 0)
(-36.826 127.48 0)
(-35.1245 127.991 0)
(-33.1785 127.866 0)
(-31.0799 127.29 0)
(-28.8902 126.393 0)
(-26.6549 125.279 0)
(-24.4062 124.037 0)
(-22.1646 122.735 0)
(-19.9407 121.417 0)
(-17.7377 120.109 0)
(-15.5587 118.846 0)
(-13.4017 117.647 0)
(-11.262 116.514 0)
(-9.13572 115.446 0)
(-7.01752 114.439 0)
(-4.90512 113.494 0)
(-2.79643 112.614 0)
(-0.687032 111.803 0)
(1.42552 111.059 0)
(3.54399 110.38 0)
(5.671 109.767 0)
(7.8088 109.222 0)
(9.96225 108.751 0)
(12.1342 108.352 0)
(14.3283 108.027 0)
(16.5488 107.776 0)
(18.8002 107.604 0)
(21.0901 107.515 0)
(23.425 107.513 0)
(25.8132 107.598 0)
(28.2639 107.775 0)
(30.7879 108.043 0)
(33.4006 108.408 0)
(36.118 108.869 0)
(38.9591 109.426 0)
(41.9454 110.071 0)
(45.0998 110.79 0)
(48.4502 111.561 0)
(52.0221 112.35 0)
(55.8385 113.102 0)
(59.9168 113.737 0)
(64.2516 114.134 0)
(68.8029 114.126 0)
(73.4668 113.475 0)
(78.0512 111.892 0)
(82.2781 109.076 0)
(85.7852 104.78 0)
(88.2224 98.9362 0)
(89.4667 91.8402 0)
(-2.49548e-07 4.77419e-07 0)
(-1.52609e-07 3.22542e-07 0)
(-8.71581e-08 2.05359e-07 0)
(-4.57255e-08 1.2087e-07 0)
(-2.1171e-08 6.30409e-08 0)
(-7.74755e-09 2.60451e-08 0)
(-1.48452e-09 5.63745e-09 0)
(1.42731e-10 -6.11747e-10 0)
(2.80439e-10 -1.35352e-09 0)
(2.01211e-10 -1.08955e-09 0)
(9.9423e-11 -6.00895e-10 0)
(2.1149e-11 -1.41705e-10 0)
(5.76589e-13 -4.24713e-12 0)
(-2.62612e-13 2.10529e-12 0)
(-2.10664e-12 1.81678e-11 0)
(-1.43276e-11 1.31205e-10 0)
(-8.96173e-11 8.59267e-10 0)
(-5.03128e-10 4.97749e-09 0)
(-2.60059e-09 2.61575e-08 0)
(-1.25238e-08 1.26252e-07 0)
(-5.63754e-08 5.62004e-07 0)
(-2.37502e-07 2.31301e-06 0)
(-9.64749e-07 9.08092e-06 0)
(-3.81943e-06 3.443e-05 0)
(-1.43408e-05 0.00012286 0)
(-5.07347e-05 0.000410511 0)
(-0.000168109 0.00127827 0)
(-0.000520162 0.00370232 0)
(-0.00151641 0.0100724 0)
(-0.00416665 0.0257676 0)
(-0.0108397 0.0623034 0)
(-0.026982 0.143953 0)
(-0.0650345 0.321777 0)
(-0.153083 0.702081 0)
(-0.353074 1.50098 0)
(-0.796367 3.14052 0)
(-1.74059 6.38035 0)
(-3.61759 12.3771 0)
(-6.9641 22.3997 0)
(-12.1056 37.0077 0)
(-18.7099 55.1458 0)
(-25.6926 74.1975 0)
(-31.7621 91.3038 0)
(-36.1308 104.814 0)
(-38.7217 114.618 0)
(-39.8534 121.422 0)
(-39.8866 125.957 0)
(-39.1137 128.77 0)
(-37.7747 130.308 0)
(-36.0545 130.927 0)
(-34.0863 130.891 0)
(-31.962 130.386 0)
(-29.744 129.545 0)
(-27.4788 128.476 0)
(-25.1993 127.27 0)
(-22.9256 125.997 0)
(-20.6686 124.699 0)
(-18.4319 123.407 0)
(-16.2192 122.157 0)
(-14.0284 120.969 0)
(-11.8547 119.845 0)
(-9.69421 118.783 0)
(-7.54166 117.779 0)
(-5.39482 116.835 0)
(-3.25152 115.957 0)
(-1.10721 115.145 0)
(1.04064 114.399 0)
(3.19489 113.715 0)
(5.35824 113.096 0)
(7.5331 112.545 0)
(9.72449 112.064 0)
(11.9354 111.655 0)