/*--------------------------------*- C++ -*----------------------------------*\
  =========                 |
  \\      /  F ield         | OpenFOAM: The Open Source CFD Toolbox
   \\    /   O peration     | Website:  https://openfoam.org
    \\  /    A nd           | Version:  7
     \\/     M anipulation  |
\*---------------------------------------------------------------------------*/
FoamFile
{
    version     2.0;
    format      ascii;
    class       volVectorField;
    location    "0";
    object      Fc;
}
// * * * * * * * * * * * * * * * * * * * * * * * * * * * * * * * * * * * * * //

dimensions      [1 -2 -2 0 0 0 0];

internalField   nonuniform List<vector> 
58002
(
(0 0 0)
(0 0 0)
(0 0 0)
(0 0 0)
(0 0 0)
(0 0 0)
(0 0 0)
(0 0 0)
(0 0 0)
(0 0 0)
(0 0 0)
(-1.99973e-317 8.87639e-318 0)
(1.03444e-312 -3.44048e-313 0)
(2.4507e-309 -5.88817e-310 0)
(-1.23284e-304 2.08173e-305 0)
(-1.44374e-300 1.6711e-301 0)
(-1.00144e-296 7.69123e-298 0)
(-4.84647e-293 2.34039e-294 0)
(-1.66437e-289 4.57316e-291 0)
(-4.11339e-286 4.9269e-288 0)
(-7.41091e-283 3.34735e-286 0)
(-9.99856e-280 -8.49264e-282 0)
(-1.0645e-276 -1.62839e-278 0)
(-9.51549e-274 -1.98678e-275 0)
(-7.75864e-271 -1.96924e-272 0)
(-4.40224e-268 -1.23557e-269 0)
(-1.89144e-265 -6.06354e-267 0)
(2.36689e-265 7.37744e-267 0)
(1.11425e-262 3.9012e-264 0)
(4.82683e-261 1.62701e-262 0)
(4.27107e-260 1.50486e-261 0)
(6.29495e-256 2.23614e-257 0)
(-2.51491e-255 -9.05598e-257 0)
(-2.16844e-250 -7.96331e-252 0)
(-7.37055e-250 -2.75767e-251 0)
(3.35948e-245 1.28115e-246 0)
(-1.93784e-245 -7.54103e-247 0)
(-1.98331e-240 -7.87772e-242 0)
(-5.82529e-239 -2.36179e-240 0)
(6.73008e-235 2.78571e-236 0)
(6.81754e-235 2.88139e-236 0)
(-3.63206e-229 -1.56747e-230 0)
(-1.02059e-228 -4.49743e-230 0)
(7.38013e-224 3.32087e-225 0)
(6.23162e-223 2.86348e-224 0)
(-7.07768e-219 -3.32138e-220 0)
(-1.73117e-217 -8.29713e-219 0)
(-2.1007e-217 -1.02834e-218 0)
(3.92244e-216 1.96133e-217 0)
(3.22314e-213 1.64657e-214 0)
(2.24074e-211 1.16981e-212 0)
(-1.35089e-209 -7.20942e-211 0)
(-6.68439e-205 -3.64802e-206 0)
(-3.45402e-203 -1.92843e-204 0)
(-1.43887e-201 -8.22164e-203 0)
(7.24125e-201 4.23647e-202 0)
(4.40646e-196 2.64091e-197 0)
(3.50614e-194 2.15386e-195 0)
(4.04965e-192 2.55166e-193 0)
(9.71491e-192 6.28353e-193 0)
(-2.14679e-189 -1.42661e-190 0)
(-8.2346e-185 -5.62817e-186 0)
(-3.65381e-183 -2.57157e-184 0)
(-4.16586e-183 -3.02332e-184 0)
(1.24887e-181 9.36084e-183 0)
(1.74766e-179 1.35542e-180 0)
(-1.72946e-177 -1.39082e-178 0)
(-7.50456e-176 -6.2734e-177 0)
(-1.57861e-174 -1.37566e-175 0)
(-2.19649e-173 -2.00195e-174 0)
(-2.29044e-172 -2.19166e-173 0)
(-1.9217e-171 -1.9389e-172 0)
(-1.36079e-170 -1.45497e-171 0)
(-8.43398e-170 -9.61297e-171 0)
(-4.33047e-169 -5.29892e-170 0)
(-1.02694e-168 -1.3607e-169 0)
(-1.11171e-168 -1.61212e-169 0)
(-7.49647e-169 -1.20565e-169 0)
(1.26926e-168 2.30246e-169 0)
(8.99299e-168 1.88071e-168 0)
(-1.20953e-163 -3.00367e-164 0)
(7.13554e-147 2.19505e-147 0)
(-2.91474e-130 -1.18613e-130 0)
(1.43068e-113 8.65396e-114 0)
(-9.26473e-79 -1.09291e-78 0)
(1.96811e-62 3.68536e-61 0)
(-4.94343e-43 6.92316e-43 0)
(-7.56607e-40 5.27016e-40 0)
(5.32226e-33 -2.54714e-33 0)
(1.43822e-17 -5.42348e-18 0)
(1.24233e-16 -4.012e-17 0)
(-1.25073e-11 3.69137e-12 0)
(-918.859 266.545 0)
(-124085 103140 0)
(1.82458e+10 4.32315e+07 0)
(0 0 0)
(0 0 0)
(0 0 0)
(0 0 0)
(0 0 0)
(0 0 0)
(0 0 0)
(0 0 0)
(0 0 0)
(0 0 0)
(0 0 0)
(1.79802e-315 -8.00627e-316 0)
(5.10238e-311 -1.70677e-311 0)
(7.72511e-307 -1.87513e-307 0)
(5.78619e-303 -9.94748e-304 0)
(2.20064e-299 -2.6283e-300 0)
(4.28728e-296 -3.4783e-297 0)
(3.00924e-293 -1.60305e-294 0)
(-8.33049e-290 2.75714e-291 0)
(-3.45066e-286 6.28409e-288 0)
(-7.01069e-283 5.0862e-285 0)
(-9.81267e-280 -1.15362e-282 0)
(-1.05787e-276 -7.96444e-279 0)
(-9.49818e-274 -1.20767e-275 0)
(-7.75476e-271 -1.30477e-272 0)
(-4.40168e-268 -8.54625e-270 0)
(-1.89086e-265 -4.28208e-267 0)
(2.36391e-265 5.32573e-267 0)
(1.11132e-262 2.78466e-264 0)
(4.80737e-261 1.18197e-262 0)
(4.25324e-260 1.08045e-261 0)
(6.27394e-256 1.6199e-257 0)
(-2.50151e-255 -6.56125e-257 0)
(-2.15969e-250 -5.78519e-252 0)
(-7.3568e-250 -2.01651e-251 0)
(3.35064e-245 9.40171e-247 0)
(-1.91392e-245 -5.49956e-247 0)
(-1.97404e-240 -5.81026e-242 0)
(-5.81277e-239 -1.75311e-240 0)
(6.7141e-235 2.07559e-236 0)
(6.8184e-235 2.16077e-236 0)
(-3.61694e-229 -1.17494e-230 0)
(-1.01977e-228 -3.39558e-230 0)
(7.34202e-224 2.50604e-225 0)
(6.22087e-223 2.17685e-224 0)
(-7.03956e-219 -2.52558e-220 0)
(-1.72649e-217 -6.35098e-219 0)
(-2.10214e-217 -7.92919e-219 0)
(3.89924e-216 1.50834e-217 0)
(3.20373e-213 1.2713e-214 0)
(2.23543e-211 9.1031e-213 0)
(-1.34233e-209 -5.61204e-211 0)
(-6.64125e-205 -2.85208e-206 0)
(-3.43148e-203 -1.51455e-204 0)
(-1.43504e-201 -6.5134e-203 0)
(7.17641e-201 3.35177e-202 0)
(4.37356e-196 2.10352e-197 0)
(3.47947e-194 1.72479e-195 0)
(4.02576e-192 2.05878e-193 0)
(9.71676e-192 5.13235e-193 0)
(-2.1281e-189 -1.16248e-190 0)
(-8.16123e-185 -4.61743e-186 0)
(-3.63965e-183 -2.13647e-184 0)
(-4.17613e-183 -2.54829e-184 0)
(1.23539e-181 7.8539e-183 0)
(1.74099e-179 1.1561e-180 0)
(-1.71014e-177 -1.18964e-178 0)
(-7.42266e-176 -5.42732e-177 0)
(-1.56104e-174 -1.20432e-175 0)
(-2.17192e-173 -1.7757e-174 0)
(-2.26567e-172 -1.97269e-173 0)
(-1.90164e-171 -1.77316e-172 0)
(-1.34692e-170 -1.35357e-171 0)
(-8.34158e-170 -9.10103e-171 0)
(-4.29344e-169 -5.12958e-170 0)
(-1.02894e-168 -1.36001e-169 0)
(-1.12199e-168 -1.661e-169 0)
(-7.67083e-169 -1.29106e-169 0)
(1.24877e-168 2.43389e-169 0)
(-3.60981e-163 -8.3386e-164 0)
(5.79022e-146 1.6341e-146 0)
(-6.51456e-129 -2.34242e-129 0)
(1.33939e-112 6.533e-113 0)
(-6.66346e-96 -4.902e-96 0)
(6.04095e-79 8.41829e-79 0)
(-1.53033e-62 -1.14521e-61 0)
(-3.40523e-44 8.84304e-44 0)
(-7.66035e-41 9.19707e-41 0)
(5.80119e-34 -4.80538e-34 0)
(1.17536e-17 -7.7882e-18 0)
(1.15183e-16 -6.6106e-17 0)
(-1.35553e-11 7.11868e-12 0)
(-798.372 410.908 0)
(-84060.1 123061 0)
(1.81968e+10 4.68319e+07 0)
(0 0 0)
(0 0 0)
(0 0 0)
(0 0 0)
(0 0 0)
(0 0 0)
(0 0 0)
(0 0 0)
(0 0 0)
(0 0 0)
(0 0 0)
(-6.69849e-315 2.9925e-315 0)
(3.38035e-311 -1.13736e-311 0)
(1.29401e-306 -3.17338e-307 0)
(1.93534e-302 -3.38696e-303 0)
(1.56031e-298 -1.92132e-299 0)
(6.50194e-295 -5.55713e-296 0)
(1.38684e-291 -8.07858e-293 0)
(1.57129e-288 -6.0824e-290 0)
(1.11075e-285 -2.71341e-287 0)
(3.3906e-283 -4.75833e-285 0)
(-4.78667e-280 2.92573e-282 0)
(-8.5949e-277 1.79774e-280 0)
(-8.90126e-274 -4.07325e-276 0)
(-7.61097e-271 -6.2883e-273 0)
(-4.38011e-268 -4.69002e-270 0)
(-1.87289e-265 -2.47042e-267 0)
(2.47437e-265 3.32556e-267 0)
(1.11114e-262 1.68166e-264 0)
(4.77059e-261 7.16314e-263 0)
(4.21178e-260 6.56237e-262 0)
(6.23904e-256 1.0094e-257 0)
(-2.45736e-255 -4.05516e-257 0)
(-2.13859e-250 -3.61169e-252 0)
(-7.34746e-250 -1.28172e-251 0)
(3.33651e-245 6.01305e-247 0)
(-1.87474e-245 -3.48565e-247 0)
(-1.9525e-240 -3.74629e-242 0)
(-5.78924e-239 -1.14734e-240 0)
(6.67469e-235 1.36693e-236 0)
(6.79444e-235 1.4376e-236 0)
(-3.59215e-229 -7.85005e-231 0)
(-1.01769e-228 -2.29678e-230 0)
(7.27977e-224 1.69683e-225 0)
(6.19955e-223 1.49254e-224 0)
(-6.97247e-219 -1.73378e-220 0)
(-1.71743e-217 -4.41068e-219 0)
(-2.103e-217 -5.57814e-219 0)
(3.85447e-216 1.0561e-217 0)
(3.17168e-213 8.98004e-215 0)
(2.22298e-211 6.50702e-213 0)
(-1.32722e-209 -4.01893e-211 0)
(-6.56347e-205 -2.05737e-206 0)
(-3.3909e-203 -1.10107e-204 0)
(-1.42677e-201 -4.80304e-203 0)
(7.06808e-201 2.46891e-202 0)
(4.31408e-196 1.56519e-197 0)
(3.42997e-194 1.29404e-195 0)
(3.97895e-192 1.5631e-193 0)
(9.7046e-192 3.97581e-193 0)
(-2.09277e-189 -8.95703e-191 0)
(-8.01448e-185 -3.59074e-186 0)
(-3.60543e-183 -1.69479e-184 0)
(-4.1852e-183 -2.06934e-184 0)
(1.20849e-181 6.30337e-183 0)
(1.72417e-179 9.51788e-181 0)
(-1.66964e-177 -9.79074e-179 0)
(-7.24483e-176 -4.53162e-177 0)
(-1.52264e-174 -1.02066e-175 0)
(-2.11678e-173 -1.52855e-174 0)
(-2.20672e-172 -1.72655e-173 0)
(-1.85069e-171 -1.57898e-172 0)
(-1.30594e-170 -1.22373e-171 0)
(-8.16146e-170 -8.46749e-171 0)
(-4.69589e-169 -5.4445e-170 0)
(-9.69993e-169 -1.27044e-169 0)
(-7.36301e-169 -1.10335e-169 0)
(-1.00307e-168 -1.74587e-169 0)
(-4.69753e-167 -9.6704e-168 0)
(-1.29137e-165 -3.21527e-166 0)
(3.11772e-149 9.66006e-150 0)
(-2.83839e-133 -1.13729e-133 0)
(1.37699e-115 7.54217e-116 0)
(4.36811e-104 3.57673e-104 0)
(1.65856e-81 2.42001e-81 0)
(7.62617e-70 3.47166e-69 0)
(-2.06263e-45 1.17376e-44 0)
(-1.19352e-41 2.37383e-41 0)
(1.50591e-34 -1.96585e-34 0)
(6.59728e-18 -6.78011e-18 0)
(8.00892e-17 -7.06382e-17 0)
(-8.33508e-12 6.63734e-12 0)
(-633.877 481.747 0)
(-57946 109845 0)
(1.81438e+10 5.01383e+07 0)
(0 0 0)
(0 0 0)
(0 0 0)
(0 0 0)
(0 0 0)
(0 0 0)
(0 0 0)
(0 0 0)
(0 0 0)
(0 0 0)
(0 0 0)
(-1.64193e-314 7.3592e-315 0)
(-1.69419e-310 5.73352e-311 0)
(-6.44308e-307 1.59622e-307 0)
(9.52734e-303 -1.69677e-303 0)
(1.5685e-298 -1.98948e-299 0)
(1.14252e-294 -1.02604e-295 0)
(4.84021e-291 -3.06052e-292 0)
(1.22995e-287 -5.45138e-289 0)
(1.79402e-284 -5.49875e-286 0)
(1.53542e-281 -3.19777e-283 0)
(7.95703e-279 -1.06888e-280 0)
(2.61204e-276 -2.09284e-278 0)
(4.47746e-274 -1.65053e-276 0)
(-4.7995e-271 2.28518e-274 0)
(-3.99242e-268 -6.51933e-271 0)
(-1.60958e-265 -5.65295e-268 0)
(4.68815e-265 1.71605e-267 0)
(1.15966e-262 5.66609e-265 0)
(4.80748e-261 2.39959e-263 0)
(4.21078e-260 2.26238e-262 0)
(6.19605e-256 3.69981e-258 0)
(-2.41546e-255 -1.50502e-257 0)
(-2.11158e-250 -1.38021e-252 0)
(-7.28635e-250 -5.11489e-252 0)
(3.31508e-245 2.48912e-247 0)
(-1.77276e-245 -1.41497e-247 0)
(-1.94344e-240 -1.64934e-242 0)
(-5.74555e-239 -5.19025e-241 0)
(6.67787e-235 6.41448e-237 0)
(6.86015e-235 6.99177e-237 0)
(-3.55811e-229 -3.84023e-231 0)
(-1.01634e-228 -1.16036e-230 0)
(7.20691e-224 8.69746e-226 0)
(6.16781e-223 7.86182e-225 0)
(-6.9083e-219 -9.29118e-221 0)
(-1.70768e-217 -2.42101e-219 0)
(-2.09995e-217 -3.13592e-219 0)
(3.80543e-216 5.9837e-218 0)
(3.12219e-213 5.16943e-215 0)
(2.21223e-211 3.85781e-213 0)
(-1.31319e-209 -2.41299e-211 0)
(-6.48792e-205 -1.25681e-206 0)
(-3.35125e-203 -6.84811e-205 0)
(-1.41975e-201 -3.06246e-203 0)
(6.95447e-201 1.58485e-202 0)
(4.25867e-196 1.02638e-197 0)
(3.38819e-194 8.64684e-196 0)
(3.93848e-192 1.06592e-193 0)
(9.67148e-192 2.78077e-193 0)
(-2.06406e-189 -6.31759e-191 0)
(-7.89348e-185 -2.57788e-186 0)
(-3.57903e-183 -1.25042e-184 0)
(-4.19762e-183 -1.57348e-184 0)
(1.18758e-181 4.79188e-183 0)
(1.71224e-179 7.46415e-181 0)
(-1.63814e-177 -7.74646e-179 0)
(-7.10482e-176 -3.66103e-177 0)
(-1.49259e-174 -8.42271e-176 0)
(-2.07388e-173 -1.28862e-174 0)
(-2.15905e-172 -1.48597e-173 0)
(-1.81488e-171 -1.39254e-172 0)
(-1.49405e-170 -1.28708e-171 0)
(-7.60107e-170 -7.40986e-171 0)
(-1.09173e-168 -1.2151e-169 0)
(2.77227e-166 3.55906e-167 0)
(1.02972e-164 1.5431e-165 0)
(1.9362e-163 3.4343e-164 0)
(1.33899e-162 2.85785e-163 0)
(8.91013e-162 2.33457e-162 0)
(-4.32097e-162 -1.42522e-162 0)
(-1.99855e-147 -8.57808e-148 0)
(6.78034e-131 3.96714e-131 0)
(9.50106e-115 8.13693e-115 0)
(2.56379e-94 3.64883e-94 0)
(-5.46942e-65 -1.76134e-64 0)
(-5.97178e-47 4.55109e-45 0)
(-2.7386e-37 9.99627e-37 0)
(-2.00615e-34 4.18479e-34 0)
(2.11795e-18 -3.31411e-18 0)
(4.25548e-17 -5.5589e-17 0)
(-4.98785e-12 5.7088e-12 0)
(-475.528 491.424 0)
(-43929.1 93734.8 0)
(1.80876e+10 5.31161e+07 0)
(0 0 0)
(0 0 0)
(0 0 0)
(0 0 0)
(0 0 0)
(0 0 0)
(0 0 0)
(0 0 0)
(0 0 0)
(0 0 0)
(3.06825e-318 -1.73276e-318 0)
(-7.9316e-314 3.5666e-314 0)
(-2.12069e-309 7.21846e-310 0)
(-2.74221e-305 6.86232e-306 0)
(-1.93572e-301 3.50723e-302 0)
(-7.16787e-298 9.35731e-299 0)
(-1.10748e-294 1.04264e-295 0)
(1.75928e-291 -1.20013e-292 0)
(1.18637e-287 -5.92537e-289 0)
(2.97896e-284 -1.09896e-285 0)
(4.5941e-281 -1.27031e-282 0)
(4.51153e-278 -9.3872e-280 0)
(2.87799e-275 -4.57535e-277 0)
(1.13733e-272 -1.37333e-274 0)
(2.73356e-270 -2.55272e-272 0)
(1.2557e-268 -9.6024e-271 0)
(2.29563e-266 -1.39994e-268 0)
(3.5217e-264 -2.11612e-266 0)
(1.94078e-262 -9.56137e-265 0)
(5.62298e-261 -2.49948e-263 0)
(4.87301e-260 -2.08194e-262 0)
(6.02816e-256 -2.37481e-258 0)
(-2.82142e-255 1.03955e-257 0)
(-3.00276e-250 1.01605e-252 0)
(-3.04785e-250 9.13863e-253 0)
(3.24393e-245 -8.52191e-248 0)
(-1.89046e-245 4.25885e-248 0)
(-2.0393e-240 3.73775e-243 0)
(-6.214e-239 8.53236e-242 0)
(7.38024e-235 -6.61894e-238 0)
(8.57526e-235 -3.52179e-238 0)
(-3.51022e-229 -3.22053e-233 0)
(-1.01199e-228 -6.28141e-232 0)
(7.07925e-224 8.34412e-227 0)
(6.15114e-223 1.08497e-225 0)
(-6.8283e-219 -1.62019e-221 0)
(-1.69342e-217 -5.09183e-220 0)
(-2.09593e-217 -7.69394e-220 0)
(3.86401e-216 1.68929e-218 0)
(3.11875e-213 1.59636e-215 0)
(2.20723e-211 1.30614e-213 0)
(-1.29972e-209 -8.80608e-212 0)
(-6.44438e-205 -4.96045e-207 0)
(-3.36473e-203 -2.92422e-205 0)
(-1.42054e-201 -1.38694e-203 0)
(6.83727e-201 7.4706e-203 0)
(4.22514e-196 5.15116e-198 0)
(3.36203e-194 4.56428e-196 0)
(3.92138e-192 5.92027e-194 0)
(9.70446e-192 1.62832e-193 0)
(-2.04733e-189 -3.8176e-191 0)
(-7.82364e-185 -1.62201e-186 0)
(-3.56556e-183 -8.22668e-185 0)
(-4.21108e-183 -1.08278e-184 0)
(1.17701e-181 3.379e-183 0)
(1.70824e-179 5.48803e-181 0)
(-1.62331e-177 -5.85243e-179 0)
(-7.04545e-176 -2.85965e-177 0)
(-1.48156e-174 -6.7952e-176 0)
(-2.06028e-173 -1.07223e-174 0)
(-2.18228e-172 -1.29459e-173 0)
(-2.06613e-171 -1.40417e-172 0)
(-1.37593e-170 -1.07724e-171 0)
(-6.43241e-170 -5.83805e-171 0)
(-3.61107e-168 -3.82691e-169 0)
(-1.27928e-162 -1.59648e-163 0)
(-1.59606e-161 -2.36887e-162 0)
(-4.15018e-161 -7.41175e-162 0)
(-7.22298e-162 -1.57378e-162 0)
(5.70645e-160 1.54256e-160 0)
(4.82308e-156 1.65169e-156 0)
(5.58161e-155 2.48811e-155 0)
(5.99927e-138 3.61188e-138 0)
(-6.17104e-118 -5.29436e-118 0)
(2.29415e-101 3.05953e-101 0)
(-3.13299e-67 -7.70591e-67 0)
(6.42496e-50 4.99263e-49 0)
(-9.73727e-40 1.06666e-38 0)
(3.20839e-36 -1.22519e-35 0)
(1.84196e-19 -4.68194e-19 0)
(1.56252e-17 -3.1251e-17 0)
(-2.15678e-12 3.57303e-12 0)
(-344.882 467.067 0)
(-39332.9 86740.6 0)
(1.8028e+10 5.56896e+07 0)
(0 0 0)
(0 0 0)
(0 0 0)
(0 0 0)
(0 0 0)
(0 0 0)
(0 0 0)
(0 0 0)
(0 0 0)
(0 0 0)
(-4.57846e-317 2.59039e-317 0)
(-1.63362e-312 7.36982e-313 0)
(-3.50334e-308 1.19935e-308 0)
(-4.22913e-304 1.06895e-304 0)
(-3.05407e-300 5.62803e-301 0)
(-1.3462e-296 1.80735e-297 0)
(-3.6535e-293 3.59842e-294 0)
(-6.31133e-290 4.62061e-291 0)
(-6.85183e-287 3.80838e-288 0)
(-4.40982e-284 1.90293e-285 0)
(4.18342e-282 -1.4436e-283 0)
(3.21475e-278 -9.07515e-280 0)
(3.092e-275 -7.37326e-277 0)
(1.68985e-272 -3.47028e-274 0)
(5.73989e-270 -1.04607e-271 0)
(8.3405e-268 -1.40948e-269 0)
(1.38656e-265 -2.14428e-267 0)
(8.18002e-264 -1.24407e-265 0)
(2.93354e-262 -4.17391e-264 0)
(6.17874e-261 -8.36062e-263 0)
(1.09338e-258 -1.49117e-260 0)
(-1.38491e-257 1.88363e-259 0)
(-1.43176e-254 1.90249e-256 0)
(-1.01556e-250 1.31905e-252 0)
(6.21545e-249 -7.91296e-251 0)
(2.87077e-245 -3.58526e-247 0)
(-3.33919e-245 4.07645e-247 0)
(-4.91517e-240 5.83392e-242 0)
(-1.79724e-238 2.06694e-240 0)
(1.18541e-234 -1.31901e-236 0)
(6.14444e-234 -6.60305e-236 0)
(-3.54121e-229 3.66358e-231 0)
(-1.00902e-228 1.00038e-230 0)
(7.08088e-224 -6.69343e-226 0)
(6.22672e-223 -5.58228e-225 0)
(-6.75844e-219 5.71397e-221 0)
(-1.69941e-217 1.3458e-219 0)
(-2.14043e-217 1.57361e-219 0)
(6.12303e-215 -4.13005e-217 0)
(4.23674e-213 -2.57978e-215 0)
(2.13307e-211 -1.14703e-213 0)
(-1.28558e-209 5.91816e-212 0)
(-2.25349e-204 8.47628e-207 0)
(-5.01479e-203 1.42582e-205 0)
(-1.52495e-201 2.806e-204 0)
(6.95467e-201 -5.14544e-204 0)
(4.27795e-196 2.01762e-199 0)
(3.47892e-194 6.30454e-197 0)
(3.97092e-192 1.3114e-194 0)
(1.03444e-191 5.13855e-194 0)
(-2.02986e-189 -1.38764e-191 0)
(-7.76935e-185 -6.94815e-187 0)
(-3.56146e-183 -4.03498e-185 0)
(-4.21843e-183 -5.9246e-185 0)
(1.18829e-181 2.03787e-183 0)
(1.72253e-179 3.56882e-181 0)
(-1.62684e-177 -4.04157e-179 0)
(-7.07599e-176 -2.09711e-177 0)
(-1.49153e-174 -5.25631e-176 0)
(-2.07503e-173 -8.67999e-175 0)
(-3.30046e-172 -1.63783e-173 0)
(-2.82611e-171 -1.66451e-172 0)
(-1.74081e-170 -1.21872e-171 0)
(-1.90644e-168 -1.5906e-169 0)
(7.72909e-162 7.71451e-163 0)
(-9.26621e-161 -1.11224e-161 0)
(-3.84066e-159 -5.58176e-160 0)
(-3.60649e-158 -6.40027e-159 0)
(-1.68018e-157 -3.67919e-158 0)
(-2.79237e-157 -7.64285e-158 0)
(7.44261e-155 2.58781e-155 0)
(8.42428e-154 3.79953e-154 0)
(1.91103e-136 1.14935e-136 0)
(-8.2025e-120 -6.83407e-120 0)
(1.44444e-103 1.76381e-103 0)
(1.77504e-75 3.48684e-75 0)
(-4.1746e-58 -1.59413e-57 0)
(-3.70672e-47 -5.37389e-46 0)
(1.11049e-38 -1.41706e-37 0)
(6.41691e-21 -3.37041e-20 0)
(3.35206e-18 -1.1906e-17 0)
(-8.34891e-13 2.19946e-12 0)
(-245.67 435.176 0)
(-129768 409382 0)
(1.79658e+10 5.76528e+07 0)
(-1.96332e+10 8.55145e+07 0)
(225173 267745 0)
(104322 40697.5 0)
(46439.6 15186 0)
(23716.5 7421.6 0)
(12969.1 4158.85 0)
(6968.01 2416.52 0)
(3943.34 1554.08 0)
(2316.96 1084.5 0)
(439.005 263.286 0)
(9.34532 8.08815 0)
(0.00555965 0.00789003 0)
(-3.2827e-05 -9.35658e-05 0)
(2.33822e-07 2.5699e-06 0)
(-9.40301e-08 1.0989e-06 0)
(-1.72366e-07 8.9482e-07 0)
(-1.63645e-07 6.68474e-07 0)
(-1.33361e-07 5.20723e-07 0)
(-9.32876e-08 3.89935e-07 0)
(-1.95388e+10 9.30084e+07 0)
(143660 323565 0)
(91884 64542.8 0)
(43023.1 24780.4 0)
(22367.9 12063.2 0)
(12332 6581.25 0)
(6671.32 3674.61 0)
(3810.98 2259.03 0)
(2253.77 1497.83 0)
(428.531 344.091 0)
(9.30065 10.1592 0)
(0.00565657 0.00951856 0)
(-3.47834e-05 -0.000108319 0)
(3.01958e-07 2.85231e-06 0)
(-5.97321e-08 1.18571e-06 0)
(-1.43266e-07 9.4057e-07 0)
(-1.43057e-07 6.87148e-07 0)
(-1.19698e-07 5.25494e-07 0)
(-8.57604e-08 3.87927e-07 0)
(-1.94361e+10 1.0007e+08 0)
(88884 283253 0)
(76817 81996.3 0)
(37883.4 32758.6 0)
(20156.8 16116.6 0)
(11238.2 8718.77 0)
(6136.48 4789.85 0)
(3565.6 2904.91 0)
(2122.59 1874.18 0)
(401.322 413.104 0)
(8.94251 12.0659 0)
(0.00560884 0.011193 0)
(-3.541e-05 -0.000124133 0)
(3.34276e-07 3.15323e-06 0)
(-3.95741e-08 1.27664e-06 0)
(-1.24529e-07 9.90714e-07 0)
(-1.29273e-07 7.09679e-07 0)
(-1.10435e-07 5.33602e-07 0)
(-8.07055e-08 3.88495e-07 0)
(-1.93265e+10 1.06531e+08 0)
(61959.9 237817 0)
(62274 93062.9 0)
(32395.4 39645.8 0)
(17412.6 19518.2 0)
(9775.04 10453.5 0)
(5405.87 5700.45 0)
(3222.41 3466.17 0)
(1925.93 2190.74 0)
(356.239 461.001 0)
(8.24958 13.6607 0)
(0.00536937 0.0128171 0)
(-3.45382e-05 -0.000140647 0)
(3.32069e-07 3.47176e-06 0)
(-3.25964e-08 1.37048e-06 0)
(-1.15148e-07 1.04432e-06 0)
(-1.21486e-07 7.35242e-07 0)
(-1.04998e-07 5.4427e-07 0)
(-7.78066e-08 3.90973e-07 0)
(-1.92102e+10 1.12412e+08 0)
(47960.4 196034 0)
(50152.2 100377 0)
(26382.6 45369.1 0)
(14211.4 22135.3 0)
(8042.66 11697.9 0)
(4534.84 6364 0)
(2811.13 3936.41 0)
(1668.84 2419.26 0)
(297.288 481.568 0)
(7.19727 14.6993 0)
(0.00486091 0.0141219 0)
(-3.20057e-05 -0.000157343 0)
(2.95344e-07 3.80394e-06 0)
(-3.812e-08 1.46589e-06 0)
(-1.14412e-07 1.10046e-06 0)
(-1.19114e-07 7.63063e-07 0)
(-1.02962e-07 5.568e-07 0)
(-7.68174e-08 3.94778e-07 0)
(-1.90872e+10 1.17157e+08 0)
(176885 907433 0)
(41974.9 109486 0)
(19104.7 48527.3 0)
(10578.1 23686.5 0)
(6151.99 12390.7 0)
(3594.77 6775.21 0)
(2352.57 4309.03 0)
(1366.16 2534.31 0)
(231.22 472.713 0)
(5.87295 15.0331 0)
(0.00416063 0.0151362 0)
(-2.77184e-05 -0.00017357 0)
(2.23681e-07 4.14221e-06 0)
(-5.55702e-08 1.56134e-06 0)
(-1.21777e-07 1.15806e-06 0)
(-1.2171e-07 7.92322e-07 0)
(-1.03995e-07 5.70502e-07 0)
(-7.75347e-08 3.99367e-07 0)
(-5.82465e-08 2.83168e-07 0)
(-3.21796e-08 1.95963e-07 0)
(-1.53112e-08 1.26932e-07 0)
(-5.9619e-09 7.57059e-08 0)
(-1.63165e-09 4.00849e-08 0)
(-1.27439e-10 1.70915e-08 0)
(8.49659e-11 4.10077e-09 0)
(-1.0713e-11 -2.43855e-10 0)
(-4.89245e-11 -7.83039e-10 0)
(-4.97769e-11 -6.48644e-10 0)
(-3.28278e-11 -3.76884e-10 0)
(-9.34911e-12 -9.95161e-11 0)
(-2.79373e-13 -2.86204e-12 0)
(7.81307e-14 7.93891e-13 0)
(8.71186e-13 9.01629e-12 0)
(6.01532e-12 6.50471e-11 0)
(3.66494e-11 4.25279e-10 0)
(1.92108e-10 2.46609e-09 0)
(8.80696e-10 1.29916e-08 0)
(3.52144e-09 6.29218e-08 0)
(1.19594e-08 2.81261e-07 0)
(3.20105e-08 1.16282e-06 0)
(5.05797e-08 4.58255e-06 0)
(-1.20695e-07 1.74342e-05 0)
(-1.64575e-06 6.24699e-05 0)
(-9.85667e-06 0.000208651 0)
(-4.52899e-05 0.00065033 0)
(-0.000176684 0.0018876 0)
(-0.00061399 0.00515102 0)
(-0.00193845 0.0132297 0)
(-0.00564201 0.0321133 0)
(-0.0153939 0.0744265 0)
(-0.0400266 0.166718 0)
(-0.100385 0.364289 0)
(-0.244248 0.779559 0)
(-0.576444 1.632 0)
(-1.30984 3.31795 0)
(-2.81643 6.44662 0)
(-5.58596 11.6979 0)
(-9.96049 19.3868 0)
(-15.7151 28.966 0)
(-21.9208 39.0389 0)
(-27.4025 48.0651 0)
(-31.4001 55.1483 0)
(-33.7969 60.2268 0)
(-34.8592 63.6892 0)
(-34.9108 65.9448 0)
(-34.2192 67.2982 0)
(-33.0039 67.991 0)
(-31.4344 68.2116 0)
(-29.6352 68.1023 0)
(-27.6939 67.7649 0)
(-25.6684 67.2702 0)
(-23.6004 66.6704 0)
(-21.519 66.0089 0)
(-19.4438 65.3218 0)
(-17.3859 64.6345 0)
(-15.3481 63.9622 0)
(-13.3327 63.3206 0)
(-11.3373 62.7168 0)
(-9.35805 62.1524 0)
(-7.39183 61.6284 0)
(-5.43407 61.1435 0)
(-3.48271 60.6969 0)
(-1.53623 60.2888 0)
(0.408673 59.9204 0)
(2.35347 59.5934 0)
(4.30006 59.3075 0)
(6.25007 59.0629 0)
(8.20444 58.8608 0)
(10.1662 58.7029 0)
(12.1368 58.5912 0)
(14.1184 58.5281 0)
(16.1134 58.5153 0)
(18.1235 58.5549 0)
(20.1534 58.6499 0)
(22.2064 58.8039 0)
(24.2875 59.0211 0)
(26.4023 59.3054 0)
(28.5569 59.6601 0)
(30.7609 60.089 0)
(33.024 60.5965 0)
(35.3598 61.187 0)
(37.784 61.863 0)
(40.3138 62.6227 0)
(42.971 63.4598 0)
(45.777 64.3598 0)
(48.7551 65.2975 0)
(51.9297 66.2313 0)
(55.3139 67.0925 0)
(58.9015 67.773 0)
(62.6415 68.109 0)
(66.4154 67.8788 0)
(70.0305 66.8274 0)
(73.2021 64.7071 0)
(75.6105 61.3772 0)
(77.0709 56.9592 0)
(-5.51359e-08 2.7894e-07 0)
(-3.17124e-08 1.91928e-07 0)
(-1.6021e-08 1.24015e-07 0)
(-6.89539e-09 7.39502e-08 0)
(-2.33776e-09 3.91872e-08 0)
(-4.95204e-10 1.67135e-08 0)
(-1.47236e-11 3.99399e-09 0)
(-4.50977e-12 -2.49716e-10 0)
(-2.77721e-11 -7.77339e-10 0)
(-3.19117e-11 -6.44042e-10 0)
(-2.23454e-11 -3.73615e-10 0)
(-6.55096e-12 -9.80703e-11 0)
(-2.00319e-13 -2.82928e-12 0)
(5.90213e-14 8.18814e-13 0)
(6.45835e-13 9.11259e-12 0)
(4.43272e-12 6.57812e-11 0)
(2.65969e-11 4.30348e-10 0)
(1.35522e-10 2.49661e-09 0)
(5.91484e-10 1.31568e-08 0)
(2.16296e-09 6.3737e-08 0)
(6.07169e-09 2.84954e-07 0)
(8.41317e-09 1.17825e-06 0)
(-3.95615e-08 4.64431e-06 0)
(-4.53152e-07 1.76738e-05 0)
(-2.80067e-06 6.33431e-05 0)
(-1.36006e-05 0.000211678 0)
(-5.66218e-05 0.000660098 0)
(-0.000208624 0.00191676 0)
(-0.000698606 0.00523266 0)
(-0.00214927 0.0134444 0)
(-0.00613808 0.0326481 0)
(-0.0165083 0.0757066 0)
(-0.0424471 0.169702 0)
(-0.105516 0.371121 0)
(-0.254899 0.794949 0)
(-0.598076 1.66606 0)
(-1.35247 3.39128 0)
(-2.89638 6.59739 0)
(-5.72507 11.9869 0)
(-10.18 19.8924 0)
(-16.026 29.7656 0)
(-22.318 40.1829 0)
(-27.8675 49.5625 0)
(-31.9096 56.9737 0)
(-34.331 62.3397 0)
(-35.4039 66.049 0)
(-35.4564 68.5142 0)
(-34.7585 70.0421 0)
(-33.5318 70.8783 0)
(-31.9476 71.2159 0)
(-30.1316 71.2016 0)
(-28.1719 70.9402 0)
(-26.1266 70.505 0)
(-24.0379 69.9513 0)
(-21.9358 69.3256 0)
(-19.8399 68.6667 0)
(-17.7611 68.0012 0)
(-15.7024 67.3452 0)
(-13.666 66.7158 0)
(-11.6499 66.1218 0)
(-9.6499 65.5654 0)
(-7.66301 65.0475 0)
(-5.68447 64.5667 0)
(-3.71223 64.1224 0)
(-1.74474 63.7155 0)
(0.221413 63.3476 0)
(2.18783 63.0203 0)
(4.15651 62.733 0)
(6.12912 62.4858 0)
(8.10672 62.28 0)
(10.0926 62.1177 0)
(12.0883 62.0009 0)
(14.0961 61.9312 0)
(16.1184 61.9101 0)
(18.1574 61.9397 0)
(20.2176 62.0227 0)
(22.3028 62.1625 0)
(24.418 62.3626 0)
(26.569 62.626 0)
(28.7619 62.9552 0)
(31.0064 63.3535 0)
(33.3125 63.824 0)
(35.6931 64.3694 0)
(38.1633 64.9895 0)
(40.7387 65.6798 0)
(43.4394 66.4307 0)
(46.2841 67.2243 0)
(49.2913 68.0312 0)
(52.4786 68.8053 0)
(55.8488 69.4734 0)
(59.382 69.9255 0)
(63.0109 70.0004 0)
(66.6001 69.4884 0)
(69.9457 68.1592 0)
(72.7684 65.8036 0)
(74.7787 62.3245 0)
(75.8501 57.8739 0)
(-5.3163e-08 2.76399e-07 0)
(-3.16038e-08 1.88781e-07 0)
(-1.67298e-08 1.21363e-07 0)
(-7.73061e-09 7.21321e-08 0)
(-2.95956e-09 3.81089e-08 0)
(-8.18735e-10 1.6161e-08 0)
(-1.01862e-10 3.78979e-09 0)
(1.78446e-12 -2.70512e-10 0)
(-7.82836e-12 -7.71223e-10 0)
(-1.49281e-11 -6.35955e-10 0)
(-1.22661e-11 -3.65525e-10 0)
(-3.81692e-12 -9.39661e-11 0)
(-1.22728e-13 -2.73421e-12 0)
(4.13865e-14 8.88663e-13 0)
(4.27634e-13 9.32093e-12 0)
(2.89206e-12 6.72725e-11 0)
(1.67616e-11 4.4031e-10 0)
(7.98404e-11 2.55467e-09 0)
(3.05094e-10 1.34602e-08 0)
(8.08884e-10 6.51826e-08 0)
(1.6425e-10 2.91281e-07 0)
(-1.54175e-08 1.20388e-06 0)
(-1.31201e-07 4.74405e-06 0)
(-7.93419e-07 1.80503e-05 0)
(-3.99029e-06 6.46768e-05 0)
(-1.74932e-05 0.000216283 0)
(-6.85201e-05 0.000674839 0)
(-0.000242461 0.00196009 0)
(-0.00078895 0.00535137 0)
(-0.00237568 0.013748 0)
(-0.00667328 0.0333822 0)
(-0.0177162 0.0774174 0)
(-0.0450854 0.1736 0)
(-0.111142 0.379859 0)
(-0.266658 0.814262 0)
(-0.622128 1.70805 0)
(-1.40011 3.48 0)
(-2.98562 6.77549 0)
(-5.87849 12.3181 0)
(-10.4164 20.4533 0)
(-16.3504 30.6257 0)
(-22.7183 41.3824 0)
(-28.3211 51.103 0)
(-32.3946 58.8282 0)
(-34.8321 64.4707 0)
(-35.9117 68.4195 0)
(-35.9642 71.0886 0)
(-35.2611 72.7864 0)
(-34.0253 73.7623 0)
(-32.4299 74.2148 0)
(-30.6009 74.2942 0)
(-28.6263 74.1076 0)
(-26.5645 73.7306 0)
(-24.4585 73.222 0)
(-22.3386 72.632 0)
(-20.2245 72.0017 0)
(-18.1271 71.358 0)
(-16.0491 70.7179 0)
(-13.9933 70.1006 0)
(-11.9577 69.5162 0)
(-9.93821 68.9679 0)
(-7.93156 68.4562 0)
(-5.93302 67.9793 0)
(-3.94058 67.5368 0)
(-1.95275 67.131 0)
(0.0340753 66.7637 0)
(2.02159 66.4361 0)
(4.01182 66.147 0)
(6.00646 65.8964 0)
(8.00675 65.6866 0)
(10.0162 65.5198 0)
(12.0364 65.3975 0)
(14.0697 65.3205 0)
(16.1184 65.2899 0)
(18.1849 65.3082 0)
(20.2744 65.3784 0)
(22.3904 65.5034 0)
(24.5381 65.6855 0)
(26.7231 65.9268 0)
(28.9515 66.2295 0)
(31.2335 66.5963 0)
(33.5787 67.0294 0)
(35.9995 67.5293 0)
(38.5095 68.0934 0)
(41.1229 68.7146 0)
(43.8581 69.3812 0)
(46.7306 70.0726 0)
(49.7544 70.756 0)
(52.9404 71.382 0)
(56.2821 71.8743 0)
(59.7474 72.1222 0)
(63.2558 71.9684 0)
(66.6604 71.2144 0)
(69.7512 69.6498 0)
(72.2547 67.0923 0)
(73.9085 63.4748 0)
(74.632 58.97 0)
(-5.2209e-08 2.75043e-07 0)
(-3.18318e-08 1.86143e-07 0)
(-1.74632e-08 1.18842e-07 0)
(-8.48662e-09 7.02101e-08 0)
(-3.50184e-09 3.68501e-08 0)
(-1.09404e-09 1.54469e-08 0)
(-1.71807e-10 3.49999e-09 0)
(9.17015e-12 -3.03323e-10 0)
(1.10206e-11 -7.64626e-10 0)
(1.01387e-12 -6.24351e-10 0)
(-2.90596e-12 -3.52868e-10 0)
(-1.3401e-12 -8.75087e-11 0)
(-5.10754e-14 -2.58183e-12 0)
(2.19289e-14 1.00517e-12 0)
(2.08352e-13 9.65364e-12 0)
(1.34057e-12 6.96785e-11 0)
(6.81239e-12 4.56356e-10 0)
(2.32263e-11 2.64723e-09 0)
(1.23596e-11 1.39386e-08 0)
(-5.82727e-10 6.74348e-08 0)
(-5.94023e-09 3.01001e-07 0)
(-4.01759e-08 1.24253e-06 0)
(-2.26947e-07 4.89163e-06 0)
(-1.15095e-06 1.85968e-05 0)
(-5.24625e-06 6.65719e-05 0)
(-2.16391e-05 0.000222748 0)
(-8.12898e-05 0.000695202 0)
(-0.000279012 0.00201904 0)
(-0.000887024 0.00551022 0)
(-0.00262219 0.0141467 0)
(-0.00725725 0.0343287 0)
(-0.0190377 0.0795858 0)
(-0.0479812 0.178464 0)
(-0.11734 0.390605 0)
(-0.279664 0.837694 0)
(-0.648841 1.75833 0)
(-1.45312 3.58473 0)
(-3.08458 6.98186 0)
(-6.04653 12.693 0)
(-10.6698 21.0717 0)
(-16.6879 31.549 0)
(-23.1203 42.6403 0)
(-28.7619 52.6899 0)
(-32.854 60.7159 0)
(-35.2996 66.6246 0)
(-36.3821 70.8053 0)
(-36.4336 73.6719 0)
(-35.7263 75.5345 0)
(-34.4843 76.6464 0)
(-32.8812 77.2112 0)
(-31.043 77.3823 0)
(-29.0571 77.2687 0)
(-26.9822 76.9485 0)
(-24.8621 76.4843 0)
(-22.7274 75.9298 0)
(-20.5978 75.3277 0)
(-18.4837 74.7051 0)
(-16.3882 74.0799 0)
(-14.3145 73.4741 0)
(-12.2608 72.8999 0)
(-10.2229 72.3599 0)
(-8.19745 71.854 0)
(-6.17968 71.3802 0)
(-4.16782 70.9395 0)
(-2.16032 70.5349 0)
(-0.153443 70.1684 0)
(1.85459 69.8401 0)
(3.86577 69.5484 0)
(5.88189 69.2943 0)
(7.90428 69.0803 0)
(9.93665 68.9088 0)
(11.9806 68.7803 0)
(14.0385 68.6949 0)
(16.1127 68.6543 0)
(18.2059 68.6609 0)
(20.3233 68.7178 0)
(22.4687 68.827 0)
(24.647 68.9902 0)
(26.864 69.2089 0)
(29.1256 69.4845 0)
(31.4418 69.8193 0)
(33.8222 70.2142 0)
(36.2781 70.6681 0)
(38.8221 71.1764 0)
(41.4669 71.7302 0)
(44.2283 72.3154 0)
(47.119 72.9092 0)
(50.1486 73.4767 0)
(53.321 73.9655 0)
(56.6216 74.2978 0)
(60.0084 74.3634 0)
(63.3904 74.009 0)
(66.6113 73.0448 0)
(69.4563 71.2737 0)
(71.658 68.5319 0)
(72.9748 64.7711 0)
(73.3605 60.1777 0)
(-5.21728e-08 2.74463e-07 0)
(-3.23957e-08 1.83876e-07 0)
(-1.82305e-08 1.16333e-07 0)
(-9.17311e-09 6.81443e-08 0)
(-3.96637e-09 3.54082e-08 0)
(-1.31738e-09 1.45799e-08 0)
(-2.2165e-10 3.14307e-09 0)
(1.82756e-11 -3.44673e-10 0)
(2.88679e-11 -7.5743e-10 0)
(1.57575e-11 -6.09115e-10 0)
(5.46262e-12 -3.35839e-10 0)
(7.29956e-13 -7.92427e-11 0)
(1.08906e-14 -2.37493e-12 0)
(-2.63868e-15 1.17179e-12 0)
(-2.1003e-14 1.01333e-11 0)
(-2.86619e-13 7.31943e-11 0)
(-3.67283e-12 4.79559e-10 0)
(-3.66662e-11 2.77972e-09 0)
(-2.98435e-10 1.46194e-08 0)
(-2.06545e-09 7.06281e-08 0)
(-1.24673e-08 3.14731e-07 0)
(-6.67399e-08 1.29685e-06 0)
(-3.30117e-07 5.09801e-06 0)
(-1.53798e-06 1.9356e-05 0)
(-6.61038e-06 6.9175e-05 0)
(-2.61769e-05 0.000231528 0)
(-9.53263e-05 0.000722301 0)
(-0.000319315 0.0020962 0)
(-0.000995338 0.0057148 0)
(-0.00289446 0.0146522 0)
(-0.00790217 0.0355117 0)
(-0.0204978 0.0822609 0)
(-0.0511844 0.18439 0)
(-0.124206 0.40354 0)
(-0.294092 0.865575 0)
(-0.678506 1.81749 0)
(-1.51193 3.70637 0)
(-3.19366 7.21773 0)
(-6.22934 13.1132 0)
(-10.9397 21.7494 0)
(-17.037 32.538 0)
(-23.5223 43.9596 0)
(-29.1879 54.3267 0)
(-33.2862 62.641 0)
(-35.7321 68.8057 0)
(-36.8138 73.2104 0)
(-36.8638 76.2681 0)
(-36.1539 78.2903 0)
(-34.9087 79.5348 0)
(-33.3016 80.2092 0)
(-31.4578 80.4696 0)
(-29.4643 80.4267 0)
(-27.38 80.1617 0)
(-25.2491 79.7409 0)
(-23.1025 79.221 0)
(-20.9596 78.6459 0)
(-18.8308 78.0428 0)
(-16.7196 77.4322 0)
(-14.6297 76.8384 0)
(-12.5593 76.2738 0)
(-10.5041 75.7418 0)
(-8.46066 75.241 0)
(-6.42457 74.7705 0)
(-4.39407 74.3318 0)
(-2.36757 73.9283 0)
(-0.341254 73.562 0)
(1.68667 73.2326 0)
(3.71823 72.9384 0)
(5.75523 72.6807 0)
(7.79913 72.4622 0)
(9.85373 72.2851 0)
(11.9207 72.1497 0)