/*--------------------------------*- C++ -*----------------------------------*\
  =========                 |
  \\      /  F ield         | OpenFOAM: The Open Source CFD Toolbox
   \\    /   O peration     | Website:  https://openfoam.org
    \\  /    A nd           | Version:  7
     \\/     M anipulation  |
\*---------------------------------------------------------------------------*/
FoamFile
{
    version     2.0;
    format      ascii;
    class       volVectorField;
    location    "0";
    object      Fc;
}
// * * * * * * * * * * * * * * * * * * * * * * * * * * * * * * * * * * * * * //

dimensions      [1 -2 -2 0 0 0 0];

internalField   nonuniform List<vector> 
58002
(
(0 0 0)
(0 0 0)
(0 0 0)
(0 0 0)
(0 0 0)
(0 0 0)
(0 0 0)
(0 0 0)
(0 0 0)
(0 0 0)
(0 0 0)
(0 0 0)
(0 0 0)
(0 0 0)
(0 0 0)
(0 0 0)
(0 0 0)
(0 0 0)
(0 0 0)
(0 0 0)
(0 0 0)
(0 0 0)
(0 0 0)
(0 0 0)
(0 0 0)
(0 0 0)
(0 0 0)
(0 0 0)
(0 0 0)
(0 0 0)
(0 0 0)
(0 0 0)
(0 0 0)
(0 0 0)
(-7.04065e-312 -5.26863e-312 0)
(-6.14565e-310 -4.5917e-310 0)
(9.01888e-305 6.72536e-305 0)
(2.13954e-302 1.59191e-302 0)
(2.01256e-297 1.49377e-297 0)
(2.89295e-295 2.14148e-295 0)
(-1.16683e-289 -8.61274e-290 0)
(-1.3662e-287 -1.00534e-287 0)
(4.29894e-282 3.15312e-282 0)
(3.69806e-280 2.70289e-280 0)
(-7.61427e-275 -5.54454e-275 0)
(-3.09106e-273 -2.24194e-273 0)
(-2.77709e-268 -2.00579e-268 0)
(-1.27306e-265 -9.15408e-266 0)
(-4.35771e-263 -3.11875e-263 0)
(2.25946e-257 1.60907e-257 0)
(2.44905e-255 1.73497e-255 0)
(-7.54033e-250 -5.31251e-250 0)
(-6.91374e-248 -4.84298e-248 0)
(1.7623e-242 1.22703e-242 0)
(1.30016e-240 8.99524e-241 0)
(-2.56299e-235 -1.76151e-235 0)
(-1.38079e-233 -9.42437e-234 0)
(1.81602e-228 1.23061e-228 0)
(5.55811e-227 3.73829e-227 0)
(-2.88114e-222 -1.92287e-222 0)
(-2.72941e-220 -1.80706e-220 0)
(-2.01516e-215 -1.32319e-215 0)
(-8.62608e-214 -5.61584e-214 0)
(1.73989e-208 1.12277e-208 0)
(3.88736e-207 2.48577e-207 0)
(-9.43953e-202 -5.97948e-202 0)
(4.80693e-200 3.01556e-200 0)
(2.16274e-197 1.34334e-197 0)
(-5.24023e-191 -3.2221e-191 0)
(-1.30617e-189 -7.94968e-190 0)
(7.66651e-185 4.61833e-185 0)
(1.0398e-183 6.19962e-184 0)
(-4.67865e-188 -2.76095e-188 0)
(4.45661e-176 2.60295e-176 0)
(1.21601e-172 7.03001e-173 0)
(1.26163e-171 7.2212e-172 0)
(-1.11627e-165 -6.32845e-166 0)
(-1.56705e-164 -8.80533e-165 0)
(5.1178e-169 2.85254e-169 0)
(-1.47338e-164 -8.1541e-165 0)
(-1.38251e-163 -7.60651e-164 0)
(1.57299e-165 8.6185e-166 0)
(1.19977e-164 6.56125e-165 0)
(1.9677e-164 1.07721e-164 0)
(-8.34283e-164 -4.58885e-164 0)
(-3.15679e-163 -1.75259e-163 0)
(3.97729e-166 2.24184e-166 0)
(-6.55981e-166 -3.78197e-166 0)
(-1.04817e-164 -6.23872e-165 0)
(1.9495e-171 1.21127e-171 0)
(1.00455e-169 6.59499e-170 0)
(2.87395e-175 2.01552e-175 0)
(7.97888e-179 5.9812e-179 0)
(-1.82843e-189 -1.39596e-189 0)
(4.46195e-204 2.73196e-204 0)
(0 0 0)
(0 0 0)
(0 0 0)
(0 0 0)
(0 0 0)
(0 0 0)
(0 0 0)
(0 0 0)
(0 0 0)
(0 0 0)
(0 0 0)
(0 0 0)
(0 0 0)
(0 0 0)
(0 0 0)
(0 0 0)
(0 0 0)
(0 0 0)
(0 0 0)
(0 0 0)
(0 0 0)
(0 0 0)
(0 0 0)
(0 0 0)
(0 0 0)
(0 0 0)
(0 0 0)
(0 0 0)
(0 0 0)
(0 0 0)
(0 0 0)
(0 0 0)
(0 0 0)
(0 0 0)
(-4.53067e-314 -3.29476e-314 0)
(-8.10909e-312 -5.88676e-312 0)
(3.73655e-306 2.7068e-306 0)
(4.24061e-304 3.06445e-304 0)
(-7.17969e-299 -5.17416e-299 0)
(-7.84649e-296 -5.63778e-296 0)
(-5.37294e-294 -3.84815e-294 0)
(1.07862e-289 7.69872e-290 0)
(4.14939e-285 2.95081e-285 0)
(5.21939e-283 3.69721e-283 0)
(-1.76115e-277 -1.24235e-277 0)
(-1.66302e-275 -1.16796e-275 0)
(3.65619e-270 2.55584e-270 0)
(4.72342e-265 3.28564e-265 0)
(8.99993e-263 6.22787e-263 0)
(2.65976e-258 1.83044e-258 0)
(2.99479e-256 2.04912e-256 0)
(-9.64669e-251 -6.56059e-251 0)
(-9.40522e-249 -6.35575e-249 0)
(2.61855e-243 1.75777e-243 0)
(2.18947e-241 1.45949e-241 0)
(-5.15594e-236 -3.4119e-236 0)
(-3.58845e-234 -2.35656e-234 0)
(6.90581e-229 4.49919e-229 0)
(3.82298e-227 2.47021e-227 0)
(-5.63578e-222 -3.61049e-222 0)
(-2.2576e-220 -1.43354e-220 0)
(2.19433e-215 1.38064e-215 0)
(4.80961e-214 2.99755e-214 0)
(-3.51449e-209 -2.16897e-209 0)
(-3.15223e-205 -1.92569e-205 0)
(-3.66017e-203 -2.21252e-203 0)
(-5.48031e-200 -3.27681e-200 0)
(-1.53456e-194 -9.0729e-195 0)
(-4.21001e-190 -2.46062e-190 0)
(-1.94978e-188 -1.12631e-188 0)
(1.25875e-186 7.18542e-187 0)
(1.03537e-182 5.83972e-183 0)
(1.40791e-181 7.84475e-182 0)
(6.1435e-175 3.38108e-175 0)
(4.84483e-172 2.63329e-172 0)
(7.82571e-171 4.20079e-171 0)
(-3.91975e-169 -2.07845e-169 0)
(-1.79287e-163 -9.39422e-164 0)
(-1.20043e-162 -6.21846e-163 0)
(-9.13927e-167 -4.68306e-167 0)
(-1.24131e-162 -6.29643e-163 0)
(-5.65988e-162 -2.8451e-162 0)
(9.80499e-164 4.89202e-164 0)
(2.58594e-163 1.28313e-163 0)
(-8.49042e-163 -4.19992e-163 0)
(-1.96353e-162 -9.71235e-163 0)
(1.01383e-165 5.03326e-166 0)
(-1.37047e-163 -6.85894e-164 0)
(-2.2112e-162 -1.12112e-162 0)
(7.09565e-165 3.66264e-165 0)
(4.05134e-168 2.13506e-168 0)
(-1.45679e-171 -7.80802e-172 0)
(5.91876e-177 3.15725e-177 0)
(3.31329e-189 1.63129e-189 0)
(-1.24494e-203 -4.32933e-204 0)
(0 0 0)
(0 0 0)
(0 0 0)
(0 0 0)
(0 0 0)
(0 0 0)
(0 0 0)
(0 0 0)
(0 0 0)
(0 0 0)
(0 0 0)
(0 0 0)
(0 0 0)
(0 0 0)
(0 0 0)
(0 0 0)
(0 0 0)
(0 0 0)
(0 0 0)
(0 0 0)
(0 0 0)
(0 0 0)
(0 0 0)
(0 0 0)
(0 0 0)
(0 0 0)
(0 0 0)
(0 0 0)
(0 0 0)
(0 0 0)
(0 0 0)
(0 0 0)
(0 0 0)
(0 0 0)
(0 0 0)
(-2.64376e-312 -1.86432e-312 0)
(-1.65507e-308 -1.1644e-308 0)
(-3.196e-306 -2.24242e-306 0)
(1.74463e-300 1.22036e-300 0)
(2.7881e-298 1.94378e-298 0)
(-1.17865e-292 -8.188e-293 0)
(-1.25948e-290 -8.71628e-291 0)
(2.28429e-285 1.57442e-285 0)
(5.18257e-283 3.55654e-283 0)
(5.73205e-279 3.91553e-279 0)
(8.17893e-277 5.55982e-277 0)
(-3.37271e-271 -2.28091e-271 0)
(-1.30289e-265 -8.76343e-266 0)
(-1.55467e-263 -1.03971e-263 0)
(5.35949e-258 3.56264e-258 0)
(5.61582e-256 3.70938e-256 0)
(-1.67979e-250 -1.10217e-250 0)
(-1.5062e-248 -9.81393e-249 0)
(3.78322e-243 2.44706e-243 0)
(2.77575e-241 1.7817e-241 0)
(-5.45386e-236 -3.47277e-236 0)
(-2.88087e-234 -1.8191e-234 0)
(3.47438e-229 2.1748e-229 0)
(7.71918e-228 4.78817e-228 0)
(6.17486e-225 3.79432e-225 0)
(-2.74784e-222 -1.67207e-222 0)
(7.25503e-217 4.37027e-217 0)
(3.60936e-215 2.15152e-215 0)
(-6.7522e-210 -3.98141e-210 0)
(-2.85799e-204 -1.66627e-204 0)
(-3.49111e-202 -2.0116e-202 0)
(-4.47984e-199 -2.54998e-199 0)
(-1.29411e-193 -7.27372e-194 0)
(-5.10262e-191 -2.83091e-191 0)
(-1.18577e-189 -6.49149e-190 0)
(4.5482e-185 2.45628e-185 0)
(2.35055e-182 1.25193e-182 0)
(5.4356e-181 2.85419e-181 0)
(-1.13968e-176 -5.89773e-177 0)
(-1.64674e-175 -8.39535e-176 0)
(3.16646e-177 1.58999e-177 0)
(-9.0439e-169 -4.4725e-169 0)
(-3.43767e-163 -1.67435e-163 0)
(-3.63638e-161 -1.74447e-161 0)
(-7.39607e-161 -3.49483e-161 0)
(-2.07352e-162 -9.65218e-163 0)
(-6.41614e-161 -2.9435e-161 0)
(-1.50718e-160 -6.81914e-161 0)
(-1.56793e-161 -7.00195e-162 0)
(-1.34265e-160 -5.92331e-161 0)
(1.565e-161 6.82842e-162 0)
(-1.23963e-159 -5.35619e-160 0)
(-6.02519e-159 -2.57989e-159 0)
(-3.78039e-160 -1.60335e-160 0)
(8.86735e-164 3.7164e-164 0)
(1.05699e-167 4.34439e-168 0)
(-1.98957e-170 -7.86172e-171 0)
(1.34898e-173 4.90684e-174 0)
(2.4337e-185 7.34672e-186 0)
(-3.55542e-198 -6.27906e-199 0)
(0 0 0)
(0 0 0)
(0 0 0)
(0 0 0)
(0 0 0)
(0 0 0)
(0 0 0)
(0 0 0)
(0 0 0)
(0 0 0)
(0 0 0)
(0 0 0)
(0 0 0)
(0 0 0)
(0 0 0)
(0 0 0)
(0 0 0)
(0 0 0)
(0 0 0)
(0 0 0)
(0 0 0)
(0 0 0)
(0 0 0)
(0 0 0)
(0 0 0)
(0 0 0)
(0 0 0)
(0 0 0)
(0 0 0)
(0 0 0)
(0 0 0)
(0 0 0)
(0 0 0)
(0 0 0)
(2.74057e-317 1.88378e-317 0)
(1.46929e-314 1.00782e-314 0)
(6.62337e-310 4.53137e-310 0)
(6.33326e-308 4.3198e-308 0)
(-1.47331e-302 -1.00153e-302 0)
(-9.69087e-301 -6.56364e-301 0)
(1.64902e-295 1.11252e-295 0)
(-3.39421e-293 -2.28032e-293 0)
(3.73364e-287 2.4971e-287 0)
(5.73058e-285 3.8144e-285 0)
(-2.64706e-279 -1.75304e-279 0)
(-3.86978e-277 -2.54914e-277 0)
(1.67504e-271 1.09719e-271 0)
(6.91339e-266 4.50154e-266 0)
(8.93338e-264 5.78039e-264 0)
(-3.38518e-258 -2.17596e-258 0)
(-3.96664e-256 -2.53208e-256 0)
(1.35643e-250 8.59588e-251 0)
(1.43287e-248 9.0113e-249 0)
(-4.4107e-243 -2.75183e-243 0)
(-3.95952e-241 -2.44977e-241 0)
(1.00692e-235 6.17553e-236 0)
(7.59553e-234 4.61596e-234 0)
(-1.58848e-228 -9.56178e-229 0)
(-9.61788e-227 -5.7322e-227 0)
(1.55934e-221 9.19809e-222 0)
(6.92348e-220 4.0404e-220 0)
(-7.48245e-215 -4.3183e-215 0)
(-1.87503e-213 -1.06971e-213 0)
(1.57899e-208 8.90073e-209 0)
(4.17109e-206 2.32202e-206 0)
(1.12442e-202 6.17851e-203 0)
(3.57707e-201 1.93899e-201 0)
(2.0102e-196 1.07435e-196 0)
(9.10519e-194 4.79558e-194 0)
(2.17498e-190 1.1284e-190 0)
(-1.69981e-189 -8.68324e-190 0)
(-6.25238e-182 -3.1435e-182 0)
(-1.43076e-180 -7.07609e-181 0)
(6.1732e-179 3.00147e-179 0)
(1.70739e-176 8.1562e-177 0)
(1.65515e-175 7.76408e-176 0)
(-1.7246e-169 -7.94075e-170 0)
(-4.57699e-164 -2.06786e-164 0)
(-4.51744e-160 -2.00176e-160 0)
(-8.14588e-159 -3.53828e-159 0)
(-4.38643e-159 -1.8666e-159 0)
(-2.12381e-160 -8.8503e-161 0)
(-2.81079e-159 -1.14662e-159 0)
(-6.38115e-157 -2.54666e-157 0)
(-7.81819e-158 -3.04933e-158 0)
(6.09166e-161 2.31901e-161 0)
(-9.20604e-159 -3.41458e-159 0)
(-3.64011e-158 -1.3104e-158 0)
(-9.28255e-158 -3.21861e-158 0)
(2.71393e-164 8.95018e-165 0)
(2.06558e-167 6.33212e-168 0)
(-6.19822e-170 -1.68611e-170 0)
(5.52836e-173 1.21731e-173 0)
(2.20886e-182 3.20724e-183 0)
(-2.68608e-197 -1.28011e-198 0)
(0 0 0)
(0 0 0)
(0 0 0)
(0 0 0)
(0 0 0)
(0 0 0)
(0 0 0)
(0 0 0)
(0 0 0)
(0 0 0)
(0 0 0)
(0 0 0)
(0 0 0)
(0 0 0)
(0 0 0)
(0 0 0)
(0 0 0)
(0 0 0)
(0 0 0)
(0 0 0)
(0 0 0)
(0 0 0)
(0 0 0)
(0 0 0)
(0 0 0)
(0 0 0)
(0 0 0)
(0 0 0)
(0 0 0)
(0 0 0)
(0 0 0)
(0 0 0)
(0 0 0)
(0 0 0)
(8.5376e-314 5.70084e-314 0)
(9.73297e-312 6.48402e-312 0)
(-2.78105e-306 -1.84734e-306 0)
(-1.9033e-304 -1.26002e-304 0)
(2.29035e-299 1.51063e-299 0)
(3.08093e-295 2.02397e-295 0)
(6.89268e-293 4.50864e-293 0)
(1.54091e-290 1.0033e-290 0)
(1.90814e-286 1.23629e-286 0)
(3.21763e-284 2.07383e-284 0)
(-1.53664e-278 -9.84934e-279 0)
(-2.29524e-276 -1.46261e-276 0)
(1.01245e-270 6.4121e-271 0)
(4.21397e-265 2.65153e-265 0)
(5.44557e-263 3.40311e-263 0)
(-2.03746e-257 -1.26414e-257 0)
(-2.33048e-255 -1.43505e-255 0)
(7.70923e-250 4.70972e-250 0)
(7.93466e-248 4.80741e-248 0)
(-2.31365e-242 -1.38966e-242 0)
(-2.23482e-240 -1.33015e-240 0)
(6.14323e-235 3.62174e-235 0)
(5.03838e-233 2.94092e-233 0)
(-1.15085e-227 -6.64799e-228 0)
(-7.62713e-226 -4.35838e-226 0)
(1.35449e-220 7.65314e-221 0)
(6.59796e-219 3.6845e-219 0)
(-7.87589e-214 -4.34488e-214 0)
(-2.20092e-212 -1.1989e-212 0)
(2.05971e-207 1.10727e-207 0)
(1.9961e-205 1.0584e-205 0)
(5.7234e-201 2.99133e-201 0)
(3.23046e-199 1.66313e-199 0)
(-1.06961e-197 -5.42057e-198 0)
(-1.15126e-196 -5.73961e-197 0)
(4.27997e-191 2.09789e-191 0)
(1.8384e-186 8.85469e-187 0)
(4.84694e-185 2.29258e-185 0)
(-2.82212e-179 -1.3099e-179 0)
(-4.91813e-178 -2.23816e-178 0)
(2.62562e-177 1.17044e-177 0)
(9.62835e-173 4.2007e-173 0)
(5.14939e-169 2.197e-169 0)
(1.34334e-166 5.60028e-167 0)
(4.94961e-166 2.01423e-166 0)
(-1.06917e-157 -4.24172e-158 0)
(-1.02946e-156 -3.97599e-157 0)
(-2.31066e-157 -8.67494e-158 0)
(-1.17184e-158 -4.26948e-159 0)
(-3.41507e-155 -1.20465e-155 0)
(-9.99898e-154 -3.40294e-154 0)
(-2.68303e-155 -8.76973e-156 0)
(-4.14515e-157 -1.29351e-157 0)
(1.15361e-156 3.40284e-157 0)
(-3.06121e-157 -8.38481e-158 0)
(-3.32085e-159 -8.2002e-160 0)
(-1.11235e-163 -2.34981e-164 0)
(4.41201e-164 7.1313e-165 0)
(-5.41044e-167 -4.95986e-168 0)
(3.36758e-181 -1.3095e-184 0)
(-4.00122e-205 3.47837e-206 0)
(0 0 0)
(0 0 0)
(0 0 0)
(0 0 0)
(0 0 0)
(0 0 0)
(0 0 0)
(0 0 0)
(0 0 0)
(0 0 0)
(0 0 0)
(0 0 0)
(0 0 0)
(0 0 0)
(0 0 0)
(0 0 0)
(0 0 0)
(0 0 0)
(0 0 0)
(0 0 0)
(0 0 0)
(0 0 0)
(0 0 0)
(0 0 0)
(0 0 0)
(0 0 0)
(0 0 0)
(0 0 0)
(0 0 0)
(0 0 0)
(0 0 0)
(0 0 0)
(0 0 0)
(0 0 0)
(1.65433e-312 1.07184e-312 0)
(2.04495e-310 1.32146e-310 0)
(-6.40256e-305 -4.12384e-305 0)
(-4.85584e-303 -3.1159e-303 0)
(6.49918e-298 4.15351e-298 0)
(1.1149e-294 7.09422e-295 0)
(5.42083e-293 3.43317e-293 0)
(2.98706e-288 1.88226e-288 0)
(6.85113e-286 4.29393e-286 0)
(1.72406e-283 1.0744e-283 0)
(-1.01122e-277 -6.26389e-278 0)
(-1.49826e-275 -9.22216e-276 0)
(6.57313e-270 4.01893e-270 0)
(2.70022e-264 1.63935e-264 0)
(3.34682e-262 2.01685e-262 0)
(-1.13059e-256 -6.7601e-257 0)
(-1.01168e-254 -5.99968e-255 0)
(1.8145e-249 1.06687e-249 0)
(3.07066e-247 1.78929e-247 0)
(7.38358e-244 4.2621e-244 0)
(7.69896e-242 4.40048e-242 0)
(-2.13286e-236 -1.20653e-236 0)
(-1.71518e-234 -9.59807e-235 0)
(3.90564e-229 2.16098e-229 0)
(2.63312e-227 1.4398e-227 0)
(-4.88217e-222 -2.63696e-222 0)
(-2.57602e-220 -1.37367e-220 0)
(3.53421e-215 1.85969e-215 0)
(1.27245e-213 6.60337e-214 0)
(-7.86634e-209 -4.02362e-209 0)
(-2.47579e-204 -1.24734e-204 0)
(-1.34341e-202 -6.66166e-203 0)
(1.67925e-197 8.18931e-198 0)
(7.27183e-196 3.48482e-196 0)
(1.73547e-196 8.16612e-197 0)
(5.2333e-195 2.4161e-195 0)
(1.80392e-191 8.16541e-192 0)
(1.6303e-184 7.22937e-185 0)
(6.02786e-183 2.61601e-183 0)
(-7.9778e-177 -3.38451e-177 0)
(-1.07804e-175 -4.46507e-176 0)
(2.2602e-171 9.12786e-172 0)
(4.24555e-170 1.66972e-170 0)
(-1.90077e-166 -7.26993e-167 0)
(-1.91988e-163 -7.12891e-164 0)
(-5.39953e-161 -1.94237e-161 0)
(-1.2666e-155 -4.40311e-156 0)
(-5.44967e-155 -1.82563e-155 0)
(-1.18272e-155 -3.80528e-156 0)
(-6.08931e-157 -1.8731e-157 0)
(-3.99785e-152 -1.16795e-152 0)
(-8.89448e-151 -2.44525e-151 0)
(-7.29855e-153 -1.86492e-153 0)
(1.46649e-155 3.41667e-156 0)
(4.44912e-155 9.13317e-156 0)
(-2.08993e-155 -3.54995e-156 0)
(-3.66699e-158 -4.5364e-159 0)
(3.43019e-158 2.09781e-159 0)
(-6.56986e-166 1.76158e-167 0)
(-3.88679e-176 5.76656e-177 0)
(-2.04414e-204 5.76312e-205 0)
(1.48803e-14 -8.87717e-15 0)
(7.50757e-05 -5.36556e-05 0)
(0.0453514 -0.0307378 0)
(2.87538 -1.78669 0)
(53.6812 -31.0826 0)
(466.692 -258.477 0)
(2154.61 -1166.05 0)
(4504.72 -2414.28 0)
(6124.61 -3293.92 0)
(6668.45 -3664.77 0)
(6542.13 -3748.2 0)
(6383.91 -3882.6 0)
(6109.79 -4009.45 0)
(5617.65 -4044.17 0)
(4850.36 -3898.93 0)
(3832.88 -3506.1 0)
(2670.18 -2836.47 0)
(1604.06 -2021.98 0)
(855.682 -1309.78 0)
(4.5149e-14 -1.54114e-14 0)
(8.09838e-05 -3.818e-05 0)
(0.0428545 -0.0214376 0)
(2.55722 -1.27088 0)
(46.693 -22.8319 0)
(392.183 -190.257 0)
(1699.67 -824.474 0)
(3295.39 -1604.57 0)
(4284.38 -2115.6 0)
(4633.22 -2364.04 0)
(4503.5 -2423.93 0)
(4279.45 -2471.44 0)
(3836.61 -2414.13 0)
(3139.62 -2186.49 0)
(2255.03 -1767.02 0)
(1352.07 -1212.58 0)
(656.358 -685.507 0)
(276.787 -342.607 0)
(107.44 -160.54 0)
(8.34909e-14 -1.4717e-14 0)
(0.000116779 -3.47671e-05 0)
(0.0497256 -0.0176791 0)
(2.61988 -1.0104 0)
(46.5355 -18.8103 0)
(378.53 -158.479 0)
(1439.34 -619.624 0)
(2396.79 -1056.74 0)
(2780.07 -1264.71 0)
(2653.67 -1267.19 0)
(2507.64 -1280.48 0)
(2275.35 -1261.41 0)
(1894.26 -1156.44 0)
(1380.11 -941.254 0)
(852.964 -659.246 0)
(439.956 -390.707 0)
(191.363 -197.901 0)
(71.8504 -87.7126 0)
(26.0502 -38.1069 0)
(1.57144e-13 -8.2182e-15 0)
(0.000150382 -2.32151e-05 0)
(0.0604677 -0.0140028 0)
(3.09847 -0.886421 0)
(47.8156 -15.5661 0)
(371.628 -132.14 0)
(1044.21 -395.413 0)
(1380.06 -550.336 0)
(1209.83 -510.189 0)
(996.757 -450.234 0)
(846.714 -415.158 0)
(703.659 -379.07 0)
(513.551 -307.611 0)
(317.573 -214.017 0)
(167.646 -128.54 0)
(76.2184 -67.1901 0)
(30.3739 -31.1072 0)
(11.0898 -13.3418 0)
(4.04219 -5.78613 0)
(2.86133e-13 2.1875e-14 0)
(0.000207143 -4.52505e-06 0)
(0.0808387 -0.00978142 0)
(3.6097 -0.709131 0)
(52.1235 -13.1859 0)
(336.759 -99.8017 0)
(635.489 -210.046 0)
(551.466 -199.085 0)
(341.152 -134.149 0)
(194.626 -83.7762 0)
(141.454 -67.1177 0)
(112.198 -59.1446 0)
(78.8593 -46.5828 0)
(46.6425 -31.1412 0)
(23.3042 -17.7302 0)
(9.99443 -8.73447 0)
(3.78222 -3.82882 0)
(1.332 -1.57666 0)
(0.480657 -0.672657 0)
(3.10076e-13 8.1278e-14 0)
(0.00028856 3.19437e-05 0)
(0.117039 -0.00240558 0)
(4.30376 -0.498187 0)
(57.2622 -10.6888 0)
(261.664 -63.2256 0)
(304.708 -87.2367 0)
(219.322 -71.6104 0)
(82.0374 -30.1016 0)
(18.8217 -7.72675 0)
(12.9735 -5.95993 0)
(9.91811 -5.11512 0)
(6.57443 -3.82533 0)
(3.62931 -2.39546 0)
(1.68863 -1.27141 0)
(0.677236 -0.585168 0)
(0.2423 -0.241889 0)
(0.0823912 -0.0957873 0)
(0.0295263 -0.040361 0)
(439.412 -836.111 0)
(239.649 -583.804 0)
(154.808 -505.08 0)
(112.48 -529.885 0)
(81.4006 -645.395 0)
(40.3586 -869.613 0)
(-34.3365 -1213.59 0)
(-166.648 -1682.66 0)
(-374.087 -2248.61 0)
(-652.36 -2832.86 0)
(-963.867 -3317.14 0)
(-1278.43 -3684.59 0)
(-1562.43 -3914.55 0)
(-1790.39 -4006.36 0)
(-1946.8 -3971.01 0)
(-2030.9 -3834.87 0)
(-2067.09 -3654.71 0)
(-2088.46 -3487.46 0)
(-2098.42 -3332.56 0)
(-2099.16 -3188.98 0)
(-2092.37 -3055.77 0)
(-2079.3 -2931.71 0)
(-2061.43 -2816.53 0)
(-2039.12 -2708.79 0)
(-2013.47 -2608.29 0)
(-1985.02 -2514.35 0)
(-1954.25 -2426.46 0)
(-1921.42 -2343.98 0)
(-1886.95 -2266.58 0)
(-1851.15 -2193.81 0)
(-1814.3 -2125.28 0)
(-1776.65 -2060.76 0)
(-1738.26 -1999.86 0)
(-1699.28 -1942.34 0)
(-1659.81 -1887.95 0)
(-1619.94 -1836.48 0)
(-1579.74 -1787.75 0)
(-1539.25 -1741.53 0)
(-1498.6 -1697.74 0)
(-1457.72 -1656.09 0)
(-1416.74 -1616.56 0)
(-1375.62 -1578.94 0)
(-1334.44 -1543.17 0)
(-1293.2 -1509.15 0)
(-1251.91 -1476.77 0)
(-1210.57 -1445.92 0)
(-1169.21 -1416.55 0)
(-1127.8 -1388.58 0)
(-1086.36 -1361.95 0)
(-1044.86 -1336.57 0)
(-1003.32 -1312.4 0)
(-961.727 -1289.39 0)
(-920.067 -1267.48 0)
(-878.348 -1246.66 0)
(-836.542 -1226.84 0)
(-794.652 -1208.02 0)
(-752.676 -1190.18 0)
(-710.59 -1173.27 0)
(-668.368 -1157.26 0)
(-626.006 -1142.13 0)
(-583.491 -1127.89 0)
(-540.83 -1114.52 0)
(-497.954 -1101.96 0)
(-454.88 -1090.25 0)
(-411.606 -1079.39 0)
(-368.083 -1069.35 0)
(-324.296 -1060.16 0)
(-280.238 -1051.81 0)
(-235.895 -1044.32 0)
(-191.255 -1037.7 0)
(-146.281 -1031.96 0)
(-100.978 -1027.15 0)
(-55.326 -1023.3 0)
(-9.32264 -1020.43 0)
(37.0221 -1018.61 0)
(83.7423 -1017.86 0)
(130.809 -1018.25 0)
(178.208 -1019.86 0)
(225.917 -1022.75 0)
(273.875 -1026.99 0)
(322.053 -1032.69 0)
(370.358 -1039.93 0)
(418.676 -1048.79 0)
(466.865 -1059.36 0)
(514.727 -1071.69 0)
(562.047 -1085.8 0)
(608.522 -1101.65 0)
(653.816 -1119.08 0)
(697.555 -1137.76 0)
(739.358 -1157.09 0)
(778.919 -1176.07 0)
(816.295 -1193.24 0)
(852.027 -1206.28 0)
(887.939 -1212.29 0)
(927.728 -1207.73 0)
(977.733 -1189.11 0)
(1047.44 -1154.28 0)
(44.0848 -81.0284 0)
(21.7914 -50.4843 0)
(14.1492 -42.9041 0)
(10.905 -46.0011 0)
(9.17976 -60.4498 0)
(6.81706 -93.8748 0)
(-0.327688 -158.328 0)
(-20.2561 -276.027 0)
(-67.8663 -477.4 0)
(-167.239 -801.192 0)
(-344.848 -1263.44 0)
(-589.639 -1763.37 0)
(-879.491 -2240.37 0)
(-1183.91 -2648.66 0)
(-1473.98 -2964.36 0)
(-1725.86 -3177.94 0)
(-1903.93 -3255.64 0)
(-1992.91 -3197.99 0)
(-2018.9 -3064.45 0)
(-2025.29 -2925.66 0)
(-2023.77 -2796.55 0)
(-2015.38 -2675.55 0)
(-2001.94 -2563.03 0)
(-1983.5 -2457.33 0)
(-1961.37 -2358.5 0)
(-1936.28 -2266.07 0)
(-1908.64 -2179.48 0)
(-1878.58 -2098.03 0)
(-1846.67 -2021.5 0)
(-1813.22 -1949.41 0)
(-1778.61 -1881.49 0)
(-1742.92 -1817.33 0)
(-1706.42 -1756.81 0)
(-1669.18 -1699.62 0)
(-1631.34 -1645.51 0)
(-1592.98 -1594.28 0)
(-1554.18 -1545.72 0)
(-1515.01 -1499.67 0)
(-1475.58 -1455.97 0)
(-1435.85 -1414.43 0)
(-1395.97 -1374.99 0)
(-1355.87 -1337.44 0)
(-1315.66 -1301.73 0)
(-1275.33 -1267.76 0)
(-1234.87 -1235.38 0)
(-1194.36 -1204.58 0)
(-1153.78 -1175.26 0)
(-1113.1 -1147.31 0)
(-1072.34 -1120.7 0)
(-1031.51 -1095.35 0)
(-990.601 -1071.21 0)
(-949.628 -1048.24 0)
(-908.557 -1026.37 0)
(-867.408 -1005.6 0)
(-826.151 -985.83 0)
(-784.796 -967.07 0)
(-743.332 -949.285 0)
(-701.73 -932.432 0)
(-660.007 -916.503 0)
(-618.121 -901.457 0)
(-576.074 -887.303 0)
(-533.87 -874.019 0)
(-491.454 -861.571 0)
(-448.832 -849.981 0)
(-406.006 -839.235 0)
(-362.935 -829.324 0)
(-319.609 -820.273 0)
(-276.013 -812.083 0)
(-232.135 -804.744 0)
(-187.975 -798.292 0)
(-143.49 -792.728 0)
(-98.6936 -788.098 0)
(-53.5669 -784.428 0)
(-8.10718 -781.741 0)
(37.6664 -780.093 0)
(83.7861 -779.528 0)
(130.221 -780.099 0)
(176.952 -781.867 0)
(223.954 -784.897 0)
(271.162 -789.258 0)
(318.546 -795.034 0)
(366.012 -802.299 0)
(413.461 -811.136 0)
(460.743 -821.579 0)
(507.672 -833.666 0)
(554.085 -847.425 0)
(599.725 -862.769 0)
(644.298 -879.496 0)
(687.572 -897.301 0)
(729.346 -915.648 0)
(769.512 -933.597 0)
(808.383 -949.881 0)
(846.862 -962.723 0)
(886.972 -969.907 0)
(932.46 -969.11 0)
(989.264 -958.346 0)
(1065.84 -936.919 0)
(10.5597 -18.8039 0)
(5.30102 -11.7329 0)
(3.48706 -9.90708 0)
(2.76997 -10.6252 0)
(2.478 -14.0397 0)
(2.18121 -22.2677 0)
(0.927308 -39.0264 0)
(-3.40552 -72.1294 0)
(-15.6891 -135.379 0)
(-45.0116 -246.086 0)
(-105.535 -424.524 0)
(-212.975 -680.535 0)
(-375.495 -999.382 0)
(-585.779 -1342.12 0)
(-830.605 -1679.31 0)
(-1091.49 -1985.93 0)
(-1347.45 -2242.08 0)
(-1579.44 -2434.95 0)
(-1771.49 -2557.34 0)
(-1891.19 -2577.88 0)
(-1945.4 -2520.27 0)
(-1953.06 -2417.16 0)
(-1943.5 -2307.08 0)
(-1928.87 -2203.79 0)
(-1910.28 -2107.03 0)
(-1888.35 -2016.17 0)
(-1863.66 -1930.96 0)
(-1836.3 -1850.69 0)
(-1806.85 -1775.13 0)
(-1775.71 -1703.87 0)
(-1743.13 -1636.5 0)
(-1709.45 -1572.89 0)
(-1674.81 -1512.83 0)
(-1639.29 -1456.02 0)
(-1603.03 -1402.25 0)
(-1566.19 -1351.34 0)
(-1528.74 -1303 0)
(-1490.86 -1257.13 0)
(-1452.64 -1213.59 0)
(-1414.05 -1172.19 0)
(-1375.22 -1132.84 0)
(-1336.15 -1095.39 0)
(-1296.89 -1059.77 0)
(-1257.47 -1025.86 0)
(-1217.87 -993.558 0)
(-1178.17 -962.814 0)
(-1138.35 -933.542 0)
(-1098.41 -905.647 0)
(-1058.35 -879.083 0)
(-1018.19 -853.784 0)
(-977.917 -829.696 0)
(-937.558 -806.772 0)
(-897.077 -784.958 0)
(-856.491 -764.23 0)
(-815.781 -744.525 0)
(-774.955 -725.821 0)
(-734.011 -708.101 0)
(-692.913 -691.326 0)
(-651.675 -675.472 0)
(-610.274 -660.515 0)
(-568.701 -646.453 0)
(-526.958 -633.263 0)
(-485.009 -620.928 0)
(-442.853 -609.462 0)
(-400.477 -598.839 0)
(-357.861 -589.06 0)
(-314.999 -580.145 0)
(-271.863 -572.086 0)
(-228.457 -564.898 0)
(-184.781 -558.604 0)
(-140.791 -553.214 0)
(-96.5036 -548.758 0)
(-51.9039 -545.268 0)
(-6.98847 -542.754 0)
(38.2158 -541.276 0)
(83.7381 -540.878 0)
(129.548 -541.607 0)
(175.621 -543.519 0)
(221.929 -546.673 0)
(268.406 -551.132 0)
(315.02 -556.966 0)
(361.681 -564.239 0)
(408.285 -573.006 0)
(454.708 -583.318 0)
(500.778 -595.187 0)
(546.352 -608.605 0)
(591.221 -623.479 0)
(635.173 -639.628 0)
(678.056 -656.74 0)
(719.778 -674.306 0)
(760.455 -691.583 0)
(800.556 -707.514 0)
(841.184 -720.78 0)
(884.451 -729.871 0)
(933.904 -733.4 0)
(995.038 -730.677 0)
(1075.5 -722.291 0)
(1.67706 -2.89517 0)
(0.857739 -1.81828 0)
(0.571422 -1.52937 0)
(0.463999 -1.63593 0)
(0.431118 -2.15174 0)
(0.417995 -3.41195 0)
(0.294149 -6.01578 0)
(-0.241275 -11.2092 0)
(-1.91525 -21.3664 0)
(-6.33443 -40.5651 0)
(-16.6995 -75.3544 0)
(-38.8406 -135.618 0)
(-82.4364 -235.035 0)
(-161.902 -390.468 0)
(-283.384 -592.959 0)
(-446.674 -826.767 0)
(-644.468 -1071.92 0)
(-860.166 -1302.51 0)
(-1083.19 -1509.94 0)
(-1300.76 -1685.64 0)
(-1497.04 -1818.88 0)
(-1660.34 -1905.2 0)
(-1771.19 -1930.67 0)
(-1831.12 -1905.02 0)
(-1850.78 -1845.01 0)
(-1841.2 -1764.66 0)
(-1819.44 -1680.99 0)
(-1794.64 -1602.03 0)
(-1767.49 -1527.51 0)
(-1738.52 -1457.13 0)
(-1708.04 -1390.49 0)
(-1676.3 -1327.47 0)
(-1643.49 -1267.94 0)
(-1609.64 -1211.59 0)
(-1574.94 -1158.22 0)
(-1539.51 -1107.61 0)
(-1503.47 -1059.59 0)
(-1466.85 -1013.96 0)
(-1429.8 -970.607 0)
(-1392.34 -929.378 0)
(-1354.56 -890.164 0)
(-1316.51 -852.867 0)
(-1278.18 -817.334 0)
(-1239.65 -783.519 0)
(-1200.92 -751.313 0)
(-1162.03 -720.648 0)
(-1122.99 -691.457 0)
(-1083.77 -663.625 0)
(-1044.41 -637.122 0)
(-1004.91 -611.891 0)
(-965.278 -587.866 0)
(-925.533 -565.006 0)
(-885.641 -543.251 0)
(-845.623 -522.583 0)
(-805.462 -502.95 0)
(-765.171 -484.32 0)
(-724.747 -466.673 0)
(-684.146 -449.971 0)
(-643.396 -434.2 0)
(-602.485 -419.337 0)
(-561.388 -405.37 0)
(-520.109 -392.282 0)
(-478.624 -380.056 0)
(-436.928 -368.695 0)
(-395.018 -358.204 0)
(-352.863 -348.56 0)
(-310.464 -339.778 0)
(-267.799 -331.864 0)
(-224.867 -324.825 0)
(-181.676 -318.684 0)
(-138.183 -313.454 0)
(-94.4045 -309.159 0)
(-50.3301 -305.82 0)
(-5.96077 -303.476 0)
(38.677 -302.16 0)
(83.6079 -301.917 0)
(128.798 -302.785 0)
(174.224 -304.823 0)
(219.85 -308.082 0)
(265.615 -312.62 0)
(311.484 -318.494 0)
(357.369 -325.759 0)
(403.172 -334.461 0)
(448.781 -344.637 0)
(494.039 -356.285 0)
(538.832 -369.388 0)
(582.993 -383.852 0)
(626.365 -399.501 0)
(668.881 -416.066 0)
(710.546 -433.104 0)
(751.592 -450.009 0)
(792.612 -465.987 0)
(834.776 -480.111 0)
(880.148 -491.488 0)
(931.997 -499.565 0)
(995.226 -504.699 0)
(1076.76 -508.748 0)
(0.20155 -0.337401 0)
(0.1048 -0.21317 0)
(0.0703353 -0.178085 0)
(0.0581249 -0.189927 0)
(0.0555431 -0.248423 0)
(0.0577383 -0.394454 0)
(0.0515252 -0.702708 0)
(0.00463017 -1.3348 0)
(-0.167516 -2.61683 0)
(-0.668247 -5.1476 0)
(-1.93744 -9.96057 0)
(-4.84142 -18.723 0)
(-10.9422 -33.9352 0)
(-22.8305 -59.08 0)
(-44.6157 -98.9649 0)
(-82.3273 -159.602 0)
(-143.991 -247.593 0)
(-238.9 -368.659 0)
(-365.218 -510.693 0)
(-520.808 -665.396 0)
(-699.214 -822.314 0)
(-887.497 -967.427 0)
(-1070.04 -1088.17 0)
(-1239.43 -1182.65 0)
(-1391.55 -1252.24 0)
(-1521.33 -1297.14 0)
(-1616.49 -1311.07 0)
(-1673.31 -1295.28 0)
(-1696.51 -1257.01 0)
(-1692.92 -1203.53 0)
(-1672.65 -1142.95 0)
(-1643.56 -1081.06 0)
(-1612.5 -1022.12 0)
(-1580.32 -966.31 0)
(-1547.15 -913.397 0)
(-1513.13 -863.178 0)
(-1478.39 -815.476 0)
(-1443.03 -770.14 0)
(-1407.14 -727.016 0)
(-1370.8 -685.996 0)
(-1334.06 -646.961 0)
(-1296.98 -609.796 0)
(-1259.6 -574.412 0)
(-1221.96 -540.714 0)
(-1184.08 -508.619 0)
(-1145.98 -478.052 0)
(-1107.69 -448.941 0)
(-1069.2 -421.202 0)
(-1030.53 -394.783 0)
(-991.702 -369.628 0)
(-952.699 -345.68 0)
(-913.56 -322.895 0)
(-874.257 -301.215 0)
(-834.802 -280.616 0)
(-795.194 -261.062 0)
(-755.432 -242.512 0)
(-715.527 -224.946 0)
(-675.44 -208.333 0)
(-635.184 -192.654 0)
(-594.754 -177.883 0)
(-554.137 -164.014 0)
(-513.331 -151.035 0)
(-472.311 -138.924 0)
(-431.08 -127.679 0)
(-389.636 -117.308 0)
(-347.942 -107.795 0)
(-306.008 -99.1464 0)
(-263.814 -91.3728 0)
(-221.359 -84.4814 0)
(-178.655 -78.4882 0)
(-135.66 -73.4098 0)
(-92.3891 -69.2652 0)
(-48.8416 -66.0788 0)
(-5.0172 -63.8874 0)
(39.0573 -62.7213 0)
(83.4016 -62.6154 0)
(127.982 -63.6158 0)
(172.769 -65.7634 0)
(217.727 -69.1114 0)
(262.796 -73.7103 0)
(307.942 -79.6075 0)
(353.078 -86.8512 0)
(398.118 -95.4777 0)
(442.951 -105.513 0)
(487.441 -116.952 0)
(531.501 -129.767 0)
(574.997 -143.872 0)
(617.804 -159.102 0)
(659.945 -175.241 0)
(701.492 -191.927 0)
(742.736 -208.693 0)
(784.338 -224.986 0)
(827.438 -240.23 0)
(873.958 -254.05 0)
(926.795 -266.573 0)
(990.089 -279.018 0)
(1069.99 -294.571 0)
(0.0125284 -0.0203402 0)
(0.00661044 -0.012921 0)
(0.00445917 -0.0107172 0)
(0.00373693 -0.0113912 0)
(0.0036465 -0.0148053 0)
(0.00398711 -0.0235011 0)
(0.00409801 -0.042196 0)
(0.00226525 -0.0815115 0)
(-0.00640232 -0.163736 0)
(-0.0347511 -0.333445 0)
(-0.113285 -0.673805 0)
(-0.308381 -1.33311 0)
(-0.753496 -2.56074 0)
(-1.69811 -4.75255 0)
(-3.5772 -8.49948 0)
(-7.1038 -14.6362 0)
(-13.3696 -24.2561 0)
(-23.9611 -38.7211 0)
(-41.3922 -60.1022 0)
(-69.9803 -91.9211 0)
(-115.117 -137.531 0)
(-182.012 -198.688 0)
(-276.726 -277.165 0)
(-393.357 -362.805 0)
(-525.016 -447.324 0)
(-666.995 -526.478 0)
(-813.719 -596.734 0)
(-958.832 -655.118 0)
(-1093.97 -698.463 0)
(-1208.12 -723.076 0)
(-1292.89 -727.367 0)
(-1357.99 -719.349 0)
(-1400.67 -699.332 0)
(-1424.17 -670.604 0)
(-1432.23 -636.146 0)
(-1428.21 -598.288 0)
(-1414.86 -558.686 0)
(-1394.44 -518.536 0)
(-1368.84 -478.657 0)
(-1339.65 -439.685 0)
(-1307.91 -401.929 0)
(-1274.3 -365.554 0)
(-1239.37 -330.658 0)
(-1203.49 -297.271 0)
(-1166.93 -265.386 0)
(-1129.86 -234.974 0)
(-1092.39 -205.985 0)
(-1054.62 -178.354 0)
(-1016.65 -152.036 0)
(-978.489 -126.977 0)
(-940.124 -103.123 0)
(-901.596 -80.4299 0)
(-862.886 -58.8395 0)
(-824.002 -38.3256 0)
(-784.946 -18.8577 0)
(-745.72 -0.399334 0)
(-706.338 17.0757 0)
(-666.762 33.5958 0)
(-627.003 49.1777 0)
(-587.061 63.8472 0)
(-546.927 77.6147 0)
(-506.597 90.4827 0)
(-466.049 102.477 0)
(-425.285 113.602 0)
(-384.31 123.853 0)
(-343.082 133.237 0)
(-301.618 141.751 0)
(-259.9 149.386 0)
(-217.925 156.132 0)
(-175.71 161.981 0)
(-133.215 166.914 0)
(-90.4537 170.911 0)
(-47.4319 173.952 0)
(-4.15136 176 0)
(39.3631 177.032 0)
(83.1255 177.012 0)
(127.102 175.895 0)
(171.261 173.648 0)
(215.566 170.223 0)
(259.957 165.578 0)
(304.4 159.67 0)
(348.816 152.46 0)
(393.115 143.918 0)
(437.207 134.025 0)
(480.968 122.787 0)
(524.323 110.236 0)
(567.182 96.4474 0)
(609.454 81.5572 0)
(651.187 65.7421 0)
(692.519 49.2803 0)
(733.778 32.4924 0)
(775.618 15.7226 0)
(819.103 -0.755612 0)
(865.949 -16.982 0)
(918.542 -33.5882 0)
(980.128 -52.424 0)
(1055.74 -78.0925 0)
(1100.22 -1065.41 0)
(875.694 -755.245 0)
(282.157 -238.255 0)
(4.29011 -3.95057 0)
(-0.000130833 0.000135818 0)
(-2.46909e-05 2.84097e-05 0)
(-9.7118e-08 1.2176e-07 0)
(1.07793e-12 -1.45008e-12 0)
(2.14356e-14 -3.05247e-14 0)
(-1.14356e-19 1.7038e-19 0)
(-2.23468e-21 3.44888e-21 0)
(-2.23416e-26 3.5418e-26 0)
(1.77005e-31 -2.8621e-31 0)
(7.58029e-33 -1.24288e-32 0)
(-1.01972e-37 1.68725e-37 0)
(1.00927e-36 -1.67864e-36 0)
(1.96514e-38 -3.27507e-38 0)
(-2.12725e-43 3.54341e-43 0)
(-1.93792e-45 3.21985e-45 0)
(-4.33596e-50 7.17429e-50 0)
(1.77711e-54 -2.9245e-54 0)
(2.30286e-56 -3.76555e-56 0)
(-4.76716e-62 7.73974e-62 0)
(-2.15233e-64 3.46771e-64 0)
(-2.25417e-68 3.60257e-68 0)
(6.81945e-73 -1.08076e-72 0)
(1.1957e-74 -1.87877e-74 0)
(-6.74158e-80 1.05012e-79 0)
(-8.75597e-82 1.35203e-81 0)
(-2.87384e-87 4.39902e-87 0)
(4.92693e-93 -7.4762e-93 0)
(1.899e-95 -2.8566e-95 0)
(5.13779e-100 -7.66216e-100 0)
(1.76682e-105 -2.61246e-105 0)
(2.33211e-107 -3.4192e-107 0)
(-1.95447e-112 2.84165e-112 0)
(-3.39828e-114 4.90008e-114 0)
(7.89996e-120 -1.12983e-119 0)
(8.49028e-122 -1.20452e-121 0)
(3.46466e-127 -4.87648e-127 0)
(-1.4147e-132 1.9756e-132 0)
(-1.91467e-134 2.65323e-134 0)
(-8.63694e-140 1.18778e-139 0)
(3.35923e-145 -4.58495e-145 0)
(3.54522e-147 -4.80289e-147 0)
(-1.07443e-152 1.44494e-152 0)
(-9.26265e-155 1.23666e-154 0)
(-2.91318e-159 3.86135e-159 0)