/*--------------------------------*- C++ -*----------------------------------*\
  =========                 |
  \\      /  F ield         | OpenFOAM: The Open Source CFD Toolbox
   \\    /   O peration     | Website:  https://openfoam.org
    \\  /    A nd           | Version:  7
     \\/     M anipulation  |
\*---------------------------------------------------------------------------*/
FoamFile
{
    version     2.0;
    format      ascii;
    class       volVectorField;
    location    "0";
    object      Fc;
}
// * * * * * * * * * * * * * * * * * * * * * * * * * * * * * * * * * * * * * //

dimensions      [1 -2 -2 0 0 0 0];

internalField   nonuniform List<vector> 
58002
(
(0 0 0)
(0 0 0)
(0 0 0)
(0 0 0)
(0 0 0)
(0 0 0)
(0 0 0)
(0 0 0)
(0 0 0)
(0 0 0)
(0 0 0)
(0 0 0)
(0 0 0)
(0 0 0)
(0 0 0)
(0 0 0)
(0 0 0)
(0 0 0)
(0 0 0)
(0 0 0)
(0 0 0)
(0 0 0)
(0 0 0)
(-2.08014e-314 -9.77475e-315 0)
(-7.31297e-311 -3.33448e-311 0)
(-1.78768e-307 -7.9577e-308 0)
(-3.14245e-304 -1.35547e-304 0)
(-4.15905e-301 -1.78582e-301 0)
(-4.10472e-298 -1.72706e-298 0)
(-2.99589e-295 -1.26545e-295 0)
(-1.19817e-292 -5.02584e-293 0)
(-4.64673e-291 -1.94591e-291 0)
(4.38495e-286 1.82898e-286 0)
(8.65278e-285 3.58901e-285 0)
(-1.75974e-280 -7.253e-281 0)
(-7.83264e-279 -3.20525e-279 0)
(7.71778e-274 3.1339e-274 0)
(1.51376e-273 6.09807e-274 0)
(1.23468e-266 4.93438e-267 0)
(1.85362e-264 7.34893e-265 0)
(-6.77685e-259 -2.66519e-259 0)
(-6.77424e-257 -2.64243e-257 0)
(1.52326e-251 5.89265e-252 0)
(6.11603e-250 2.34604e-250 0)
(-2.14099e-247 -8.14232e-248 0)
(-7.08045e-245 -2.66928e-245 0)
(1.44818e-239 5.41127e-240 0)
(2.2293e-236 8.2552e-237 0)
(1.16857e-234 4.28787e-235 0)
(-2.63067e-231 -9.56388e-232 0)
(2.10896e-227 7.59561e-228 0)
(-9.32438e-222 -3.32661e-222 0)
(-1.0857e-219 -3.83654e-220 0)
(-1.2039e-217 -4.21345e-218 0)
(1.18228e-214 4.09782e-215 0)
(6.17327e-212 2.11891e-212 0)
(3.25181e-210 1.10527e-210 0)
(-2.94265e-206 -9.9041e-207 0)
(-1.22054e-204 -4.06778e-205 0)
(6.81776e-200 2.25e-200 0)
(3.86672e-197 1.26366e-197 0)
(5.7224e-196 1.852e-196 0)
(-1.82166e-194 -5.83906e-195 0)
(-8.34907e-190 -2.65085e-190 0)
(-1.15671e-188 -3.63843e-189 0)
(4.53905e-183 1.41478e-183 0)
(6.0573e-182 1.87132e-182 0)
(-1.86622e-177 -5.71634e-178 0)
(-2.47721e-176 -7.52618e-177 0)
(8.48281e-172 2.55745e-172 0)
(7.47302e-171 2.23698e-171 0)
(3.93765e-172 1.17108e-172 0)
(1.33392e-166 3.94459e-167 0)
(1.59274e-165 4.68749e-166 0)
(-7.00799e-162 -2.05487e-162 0)
(-4.40555e-158 -1.28867e-158 0)
(-1.3042e-156 -3.81152e-157 0)
(-2.02086e-156 -5.91117e-157 0)
(-1.83682e-157 -5.38892e-158 0)
(4.53736e-160 1.3385e-160 0)
(6.57365e-158 1.95561e-158 0)
(2.69583e-157 8.11609e-158 0)
(4.03253e-159 1.23375e-159 0)
(-7.56381e-159 -2.36344e-159 0)
(-1.18351e-158 -3.79937e-159 0)
(-1.24599e-158 -4.13919e-159 0)
(-5.67807e-159 -1.96887e-159 0)
(-6.56439e-160 -2.4006e-160 0)
(-8.73777e-162 -3.41225e-162 0)
(-2.08505e-164 -8.8229e-165 0)
(8.82583e-165 4.11337e-165 0)
(-7.44952e-171 -3.88597e-171 0)
(3.35262e-176 1.97276e-176 0)
(-9.18905e-191 -5.89431e-191 0)
(1.86492e-205 1.04925e-205 0)
(0 0 0)
(0 0 0)
(0 0 0)
(0 0 0)
(0 0 0)
(0 0 0)
(0 0 0)
(0 0 0)
(0 0 0)
(0 0 0)
(0 0 0)
(0 0 0)
(0 0 0)
(0 0 0)
(0 0 0)
(0 0 0)
(0 0 0)
(0 0 0)
(0 0 0)
(0 0 0)
(0 0 0)
(0 0 0)
(-3.17514e-317 -1.50129e-317 0)
(-1.78965e-313 -8.22299e-314 0)
(-6.45847e-310 -2.87865e-310 0)
(-1.60743e-306 -6.9894e-307 0)
(-2.78622e-303 -1.17701e-303 0)
(-3.38731e-300 -1.41955e-300 0)
(-2.77983e-297 -1.14659e-297 0)
(-1.46556e-294 -6.04172e-295 0)
(-3.52503e-292 -1.44331e-292 0)
(-6.81585e-291 -2.77408e-291 0)
(4.59129e-286 1.86052e-286 0)
(2.33159e-284 9.39492e-285 0)
(-3.12365e-279 -1.25002e-279 0)
(-9.10955e-278 -3.6176e-278 0)
(5.34482e-273 2.10525e-273 0)
(1.22554e-270 4.78669e-271 0)
(4.21106e-269 1.63083e-269 0)
(-5.65316e-265 -2.17066e-265 0)
(-5.35786e-261 -2.03955e-261 0)
(-1.00744e-259 -3.80135e-260 0)
(-1.22699e-254 -4.5885e-255 0)
(-3.62112e-252 -1.34187e-252 0)
(-5.6847e-248 -2.08704e-248 0)
(-1.67539e-246 -6.09281e-247 0)
(1.38656e-241 4.99395e-242 0)
(8.32921e-237 2.97054e-237 0)
(9.45864e-236 3.33974e-236 0)
(-1.99411e-232 -6.96978e-233 0)
(-1.08974e-227 -3.76977e-228 0)
(-4.33655e-226 -1.48454e-226 0)
(7.31421e-221 2.47749e-221 0)
(1.82339e-219 6.11035e-220 0)
(-9.06067e-215 -3.00357e-215 0)
(-2.00688e-213 -6.58024e-214 0)
(7.33249e-210 2.37778e-210 0)
(1.44888e-206 4.64635e-207 0)
(1.29176e-205 4.09626e-206 0)
(-3.69958e-201 -1.16e-201 0)
(-1.43832e-198 -4.45907e-199 0)
(-2.23569e-197 -6.85285e-198 0)
(-3.86964e-193 -1.17275e-193 0)
(-1.34844e-189 -4.04065e-190 0)
(-1.54626e-188 -4.58161e-189 0)
(1.0564e-187 3.09544e-188 0)
(1.26728e-180 3.67276e-181 0)
(9.79301e-180 2.80765e-180 0)
(-5.0809e-175 -1.4414e-175 0)
(-4.98751e-174 -1.4005e-174 0)
(1.08774e-169 3.02449e-170 0)
(6.4689e-169 1.78194e-169 0)
(3.67472e-169 1.00341e-169 0)
(3.74312e-164 1.0139e-164 0)
(3.63543e-163 9.77675e-164 0)
(-3.99982e-160 -1.06907e-160 0)
(-1.52179e-155 -4.04748e-156 0)
(-1.78546e-154 -4.73244e-155 0)
(-1.31866e-154 -3.48928e-155 0)
(-1.585e-155 -4.19579e-156 0)
(-4.91679e-157 -1.30536e-157 0)
(2.42906e-156 6.48686e-157 0)
(8.06132e-156 2.17316e-156 0)
(3.08011e-156 8.41725e-157 0)
(-2.08638e-158 -5.80851e-159 0)
(-2.33201e-158 -6.65317e-159 0)
(-1.55737e-158 -4.58497e-159 0)
(-1.89652e-159 -5.80748e-160 0)
(-6.95413e-161 -2.23473e-161 0)
(2.47535e-163 8.42598e-164 0)
(5.3853e-163 1.95751e-163 0)
(-6.27865e-173 -2.44409e-173 0)
(2.98875e-176 1.22835e-176 0)
(-2.03264e-190 -8.25348e-191 0)
(-5.2997e-202 -1.63241e-202 0)
(0 0 0)
(0 0 0)
(0 0 0)
(0 0 0)
(0 0 0)
(0 0 0)
(0 0 0)
(0 0 0)
(0 0 0)
(0 0 0)
(0 0 0)
(0 0 0)
(0 0 0)
(0 0 0)
(0 0 0)
(0 0 0)
(0 0 0)
(0 0 0)
(0 0 0)
(0 0 0)
(0 0 0)
(0 0 0)
(0 0 0)
(-5.52765e-315 -2.48468e-315 0)
(-3.14547e-311 -1.37093e-311 0)
(-1.20238e-307 -5.10758e-308 0)
(-3.20278e-304 -1.32336e-304 0)
(-6.07876e-301 -2.48234e-301 0)
(-8.29154e-298 -3.33405e-298 0)
(-8.3098e-295 -3.32435e-295 0)
(-4.79506e-292 -1.90661e-292 0)
(-2.99308e-290 -1.18204e-290 0)
(5.49705e-285 2.15988e-285 0)
(3.18344e-283 1.24328e-283 0)
(-2.20725e-278 -8.55592e-279 0)
(-7.62484e-277 -2.93129e-277 0)
(1.95239e-272 7.44092e-273 0)
(1.45504e-270 5.49618e-271 0)
(2.60983e-266 9.76937e-267 0)
(7.57965e-265 2.81149e-265 0)
(-4.01744e-260 -1.47643e-260 0)
(-1.22123e-258 -4.44592e-259 0)
(9.50883e-254 3.42852e-254 0)
(1.87644e-252 6.69952e-253 0)
(-7.4055e-248 -2.61755e-248 0)
(-7.90895e-247 -2.76694e-247 0)
(1.50014e-242 5.19346e-243 0)
(2.84464e-239 9.74325e-240 0)
(4.05691e-235 1.37446e-235 0)
(3.39167e-231 1.13637e-231 0)
(2.17271e-229 7.19774e-230 0)
(-3.16752e-224 -1.03732e-224 0)
(-8.46616e-223 -2.7403e-223 0)
(5.75536e-218 1.84086e-218 0)
(1.01688e-216 3.21353e-217 0)
(-4.27518e-212 -1.33459e-212 0)
(-5.9947e-211 -1.84831e-211 0)
(3.43715e-206 1.04652e-206 0)
(1.51142e-204 4.5437e-205 0)
(-1.68911e-199 -5.01297e-200 0)
(-3.8109e-198 -1.1164e-198 0)
(1.31569e-196 3.80408e-197 0)
(8.39658e-192 2.39586e-192 0)
(6.82861e-190 1.92273e-190 0)
(2.86513e-187 7.96038e-188 0)
(6.53642e-185 1.79193e-185 0)
(1.09068e-180 2.95034e-181 0)
(8.67937e-181 2.31672e-181 0)
(-9.89295e-177 -2.60592e-177 0)
(-3.91539e-173 -1.01793e-173 0)
(-5.23948e-173 -1.34469e-173 0)
(5.11528e-168 1.29632e-168 0)
(1.9946e-167 4.99297e-168 0)
(1.47932e-163 3.6595e-164 0)
(2.05708e-161 5.0317e-162 0)
(5.17076e-161 1.25149e-161 0)
(-2.84667e-158 -6.8233e-159 0)
(-2.31745e-153 -5.50697e-154 0)
(-1.75079e-152 -4.12989e-153 0)
(-6.0132e-153 -1.41022e-153 0)
(-7.01071e-154 -1.63769e-154 0)
(-3.2111e-155 -7.48793e-156 0)
(4.86477e-155 1.1354e-155 0)
(1.38079e-154 3.23559e-155 0)
(1.55428e-154 3.66959e-155 0)
(6.63066e-155 1.58359e-155 0)
(-1.95458e-158 -4.74348e-159 0)
(-2.40312e-159 -5.95273e-160 0)
(-2.69659e-160 -6.84482e-161 0)
(2.71554e-162 7.07823e-163 0)
(1.4624e-162 3.9034e-163 0)
(-5.55263e-172 -1.49782e-172 0)
(-5.12593e-177 -1.34584e-177 0)
(2.09517e-190 4.85834e-191 0)
(-2.14623e-200 -3.10667e-201 0)
(0 0 0)
(0 0 0)
(0 0 0)
(0 0 0)
(0 0 0)
(0 0 0)
(0 0 0)
(0 0 0)
(0 0 0)
(0 0 0)
(0 0 0)
(0 0 0)
(0 0 0)
(0 0 0)
(0 0 0)
(0 0 0)
(0 0 0)
(0 0 0)
(0 0 0)
(0 0 0)
(0 0 0)
(0 0 0)
(0 0 0)
(-3.45036e-315 -1.51556e-315 0)
(-1.62769e-311 -6.92331e-312 0)
(-5.90957e-308 -2.4448e-308 0)
(-2.33854e-304 -9.40129e-305 0)
(-6.5847e-301 -2.60341e-301 0)
(-1.30383e-297 -5.06222e-298 0)
(-1.9897e-294 -7.6402e-295 0)
(-1.50081e-291 -5.71985e-292 0)
(-9.56766e-290 -3.62568e-290 0)
(1.10151e-284 4.14967e-285 0)
(1.37777e-281 5.15543e-282 0)
(6.3644e-280 2.36214e-280 0)
(-1.42033e-275 -5.22483e-276 0)
(-4.85632e-272 -1.77009e-272 0)
(-2.58232e-270 -9.32428e-271 0)
(3.16444e-265 1.13173e-265 0)
(8.10186e-264 2.86954e-264 0)
(-3.94277e-260 -1.38274e-260 0)
(-2.06526e-258 -7.17044e-259 0)
(2.28205e-253 7.84187e-254 0)
(4.93643e-252 1.67854e-252 0)
(-1.47816e-248 -4.97222e-249 0)
(-5.34587e-247 -1.77847e-247 0)
(3.52595e-242 1.15981e-242 0)
(9.01863e-238 2.93242e-238 0)
(6.71634e-234 2.15816e-234 0)
(4.86286e-233 1.54382e-233 0)
(-4.75786e-230 -1.49198e-230 0)
(-9.38002e-226 -2.90462e-226 0)
(-1.47092e-224 -4.49685e-225 0)
(3.98394e-220 1.20214e-220 0)
(3.23204e-217 9.62366e-218 0)
(8.92142e-216 2.62065e-216 0)
(-6.23123e-210 -1.80534e-210 0)
(-1.96221e-208 -5.60574e-209 0)
(1.08088e-206 3.04417e-207 0)
(2.01615e-204 5.59643e-205 0)
(2.50466e-203 6.85072e-204 0)
(1.48389e-197 3.99843e-198 0)
(4.8922e-193 1.29837e-193 0)
(2.23527e-191 5.84177e-192 0)
(8.40003e-186 2.16137e-186 0)
(2.79857e-183 7.08828e-184 0)
(3.73004e-182 9.29835e-183 0)
(-1.08268e-177 -2.65594e-178 0)
(-2.45959e-175 -5.93687e-176 0)
(3.50406e-172 8.3216e-173 0)
(2.73407e-170 6.38797e-171 0)
(1.77316e-168 4.07587e-169 0)
(-4.11604e-166 -9.30876e-167 0)
(-1.5609e-164 -3.47356e-165 0)
(4.70562e-160 1.03059e-160 0)
(6.26579e-159 1.35093e-159 0)
(3.94303e-159 8.37217e-160 0)
(1.11196e-158 2.32629e-159 0)
(-2.21134e-151 -4.56106e-152 0)
(-9.70711e-151 -1.9755e-151 0)
(-2.54375e-151 -5.11281e-152 0)
(-3.00458e-152 -5.97084e-153 0)
(-1.56712e-153 -3.0829e-154 0)
(4.94223e-154 9.63884e-155 0)
(1.01041e-153 1.95631e-154 0)
(1.18362e-153 2.27733e-154 0)
(2.7063e-154 5.17742e-155 0)
(1.87105e-155 3.55531e-156 0)
(-1.86099e-159 -3.49708e-160 0)
(2.23204e-161 4.10447e-162 0)
(1.46411e-162 2.57356e-163 0)
(-1.0769e-171 -1.724e-172 0)
(-3.77177e-172 -4.95042e-173 0)
(3.98763e-185 3.35015e-186 0)
(-6.82644e-200 -1.41064e-201 0)
(0 0 0)
(0 0 0)
(0 0 0)
(0 0 0)
(0 0 0)
(0 0 0)
(0 0 0)
(0 0 0)
(0 0 0)
(0 0 0)
(0 0 0)
(0 0 0)
(0 0 0)
(0 0 0)
(0 0 0)
(0 0 0)
(0 0 0)
(0 0 0)
(0 0 0)
(0 0 0)
(0 0 0)
(0 0 0)
(0 0 0)
(2.65888e-314 1.13974e-314 0)
(1.45619e-310 6.03266e-311 0)
(5.44115e-307 2.1867e-307 0)
(1.40181e-303 5.46602e-304 0)
(2.52629e-300 9.65436e-301 0)
(3.18275e-297 1.1936e-297 0)
(2.8151e-294 1.04275e-294 0)
(1.34526e-291 4.94701e-292 0)
(6.35835e-290 2.32664e-290 0)
(-7.80266e-285 -2.83564e-285 0)
(-2.50212e-283 -9.02274e-284 0)
(1.81717e-278 6.49467e-279 0)
(2.75806e-277 9.7633e-278 0)
(-7.27675e-273 -2.55074e-273 0)
(-3.23957e-271 -1.12431e-271 0)
(-3.82351e-267 -1.31356e-267 0)
(-3.36623e-264 -1.14453e-264 0)
(-7.52546e-263 -2.5318e-263 0)
(5.70246e-261 1.89791e-261 0)
(-5.52121e-256 -1.81737e-256 0)
(-1.36365e-251 -4.43796e-252 0)
(-6.26508e-248 -2.01534e-248 0)
(-2.34936e-246 -7.46759e-247 0)
(1.86232e-241 5.84739e-242 0)
(7.54988e-237 2.34093e-237 0)
(1.09684e-233 3.35742e-234 0)
(1.56351e-232 4.72317e-233 0)
(-9.43633e-229 -2.81239e-229 0)
(-1.27456e-227 -3.7466e-228 0)
(-2.58458e-225 -7.49091e-226 0)
(-2.9305e-220 -8.37174e-221 0)
(-1.18802e-218 -3.34419e-219 0)
(2.20306e-213 6.10858e-214 0)
(6.21592e-212 1.69717e-212 0)
(-4.00798e-207 -1.07722e-207 0)
(-4.71935e-206 -1.24817e-206 0)
(2.86746e-204 7.46015e-205 0)
(5.06793e-203 1.29655e-203 0)
(-1.54496e-198 -3.8853e-199 0)
(-2.522e-194 -6.23227e-195 0)
(-1.63683e-193 -3.9732e-194 0)
(3.04739e-193 7.26338e-194 0)
(-1.38689e-187 -3.24464e-188 0)
(-1.02059e-181 -2.34274e-182 0)
(-1.01612e-178 -2.28775e-179 0)
(-3.61048e-175 -7.96986e-176 0)
(-7.1214e-174 -1.54068e-174 0)
(1.12386e-172 2.38209e-173 0)
(8.62429e-167 1.79023e-167 0)
(1.12633e-165 2.28894e-166 0)
(-7.89617e-163 -1.57041e-163 0)
(-1.16407e-161 -2.26491e-162 0)
(1.51344e-157 2.87984e-158 0)
(1.36863e-156 2.54608e-157 0)
(3.6886e-158 6.70639e-159 0)
(-3.26317e-151 -5.79631e-152 0)
(-1.62248e-149 -2.81452e-150 0)
(-4.12889e-149 -6.99183e-150 0)
(-1.04052e-149 -1.71893e-150 0)
(-1.25637e-150 -2.02268e-151 0)
(-6.89613e-152 -1.08054e-152 0)
(2.12899e-153 3.23925e-154 0)
(2.89063e-153 4.25263e-154 0)
(1.69398e-153 2.39332e-154 0)
(7.9368e-155 1.06389e-155 0)
(-4.92067e-159 -6.11964e-160 0)
(2.42838e-160 2.68566e-161 0)
(-2.6357e-161 -2.36901e-162 0)
(1.24094e-167 7.21524e-169 0)
(-1.83692e-170 -1.78241e-172 0)
(2.01366e-184 -1.14732e-185 0)
(-4.98602e-203 5.57174e-204 0)
(0 0 0)
(0 0 0)
(0 0 0)
(0 0 0)
(0 0 0)
(0 0 0)
(0 0 0)
(0 0 0)
(0 0 0)
(0 0 0)
(0 0 0)
(0 0 0)
(0 0 0)
(0 0 0)
(0 0 0)
(0 0 0)
(0 0 0)
(0 0 0)
(0 0 0)
(0 0 0)
(0 0 0)
(0 0 0)
(0 0 0)
(6.28373e-315 2.62562e-315 0)
(3.38441e-311 1.36371e-311 0)
(1.23905e-307 4.83103e-308 0)
(3.11848e-304 1.17848e-304 0)
(5.46369e-301 2.0211e-301 0)
(6.65643e-298 2.42072e-298 0)
(5.65796e-295 2.03693e-295 0)
(2.58241e-292 9.24128e-293 0)
(1.16281e-290 4.13945e-291 0)
(-1.365e-285 -4.82031e-286 0)
(-4.26669e-284 -1.4932e-284 0)
(3.15856e-279 1.09466e-279 0)
(5.26925e-278 1.80748e-278 0)
(-1.469e-273 -4.98639e-274 0)
(-3.01634e-270 -1.01304e-270 0)
(-6.10481e-268 -2.02823e-268 0)
(-2.81789e-266 -9.25889e-267 0)
(3.43744e-261 1.11673e-261 0)
(1.10183e-259 3.53828e-260 0)
(-1.02793e-254 -3.26187e-255 0)
(-2.97966e-253 -9.34004e-254 0)
(2.55542e-248 7.90991e-249 0)
(6.48555e-247 1.98166e-247 0)
(-4.51207e-242 -1.36043e-242 0)
(-2.58626e-237 -7.69176e-238 0)
(-4.2178e-236 -1.23691e-236 0)
(1.75833e-231 5.08256e-232 0)
(2.20558e-230 6.28163e-231 0)
(-2.36118e-226 -6.62336e-227 0)
(-4.81545e-223 -1.32989e-223 0)
(-2.0708e-221 -5.62821e-222 0)
(3.30618e-217 8.83961e-218 0)
(2.06789e-214 5.43652e-215 0)
(3.52189e-213 9.10055e-214 0)
(-4.90777e-211 -1.24588e-211 0)
(-1.01779e-206 -2.53717e-207 0)
(-1.4094e-203 -3.44835e-204 0)
(-1.62585e-202 -3.90235e-203 0)
(4.76906e-198 1.12232e-198 0)
(3.33282e-197 7.68596e-198 0)
(-9.4359e-193 -2.13121e-193 0)
(-3.99026e-192 -8.82146e-193 0)
(-7.86072e-192 -1.69992e-192 0)
(-7.66537e-183 -1.62049e-183 0)
(-1.13497e-177 -2.34394e-178 0)
(-7.98645e-176 -1.6101e-176 0)
(-5.62877e-173 -1.10692e-173 0)
(-2.26742e-172 -4.34597e-173 0)
(1.19611e-167 2.23254e-168 0)
(2.52094e-164 4.57786e-165 0)
(1.31638e-163 2.32332e-164 0)
(-2.06206e-160 -3.53323e-161 0)
(-1.92681e-159 -3.2012e-160 0)
(2.53265e-155 4.07429e-156 0)
(2.79992e-154 4.35445e-155 0)
(1.39065e-153 2.08686e-154 0)
(-6.84049e-149 -9.88215e-150 0)
(-1.05363e-147 -1.46132e-148 0)
(-1.85905e-147 -2.4665e-148 0)
(-4.25626e-148 -5.37467e-149 0)
(-5.19786e-149 -6.2055e-150 0)
(-2.97589e-150 -3.32678e-151 0)
(-2.44428e-152 -2.51946e-153 0)
(3.05699e-153 2.83477e-154 0)
(1.0495e-154 8.38819e-156 0)
(-1.04554e-155 -6.61685e-157 0)
(3.59694e-155 1.46554e-156 0)
(-1.90885e-160 -1.68276e-162 0)
(3.3313e-162 -1.24888e-163 0)
(-6.15878e-170 6.53196e-171 0)
(-2.1703e-176 4.43533e-177 0)
(1.993e-208 -6.10037e-209 0)
(-8.98055e-36 4.85951e-36 0)
(6.43046e-20 -3.80381e-20 0)
(3.641e-14 -1.92701e-14 0)
(1.60679e-10 -7.51414e-11 0)
(6.1312e-08 -2.60533e-08 0)
(5.73438e-06 -2.29144e-06 0)
(0.000222618 -8.6424e-05 0)
(0.00470857 -0.00182789 0)
(0.0632918 -0.0251872 0)
(0.593677 -0.247382 0)
(4.14055 -1.83989 0)
(22.8702 -11.0113 0)
(76.3995 -40.4216 0)
(122.895 -72.3824 0)
(115.897 -76.94 0)
(78.8943 -59.7617 0)
(30.5955 -26.7662 0)
(6.88179 -7.03559 0)
(1.06929 -1.29196 0)
(4.1355e-36 -1.23712e-36 0)
(6.42964e-20 -2.48392e-20 0)
(3.35819e-14 -1.30209e-14 0)
(1.4631e-10 -5.42394e-11 0)
(5.67845e-08 -2.02283e-08 0)
(5.41333e-06 -1.8912e-06 0)
(0.00021332 -7.48084e-05 0)
(0.00455064 -0.0016376 0)
(0.0612232 -0.0230529 0)
(0.569638 -0.228238 0)
(3.91114 -1.69189 0)
(21.3066 -10.0774 0)
(56.816 -29.711 0)
(68.6953 -40.1307 0)
(57.362 -37.8137 0)
(27.563 -20.7068 0)
(3.75054 -3.24234 0)
(0.00569124 -0.00571483 0)
(0.00132144 -0.00155499 0)
(7.19986e-36 -1.03932e-36 0)
(8.23293e-20 -1.90387e-20 0)
(3.99167e-14 -1.05733e-14 0)
(1.68171e-10 -4.69811e-11 0)
(5.94967e-08 -1.71649e-08 0)
(5.7255e-06 -1.70884e-06 0)
(0.000226947 -7.07832e-05 0)
(0.00477051 -0.00157425 0)
(0.0633076 -0.0223758 0)
(0.587138 -0.224771 0)
(4.08272 -1.70991 0)
(21.5082 -9.94311 0)
(51.9591 -26.7285 0)
(57.0304 -32.8974 0)
(44.9755 -29.3157 0)
(18.5832 -13.792 0)
(1.37358 -1.16953 0)
(0.000989661 -0.000973705 0)
(0.000254994 -0.00029192 0)
(3.33889e-35 -9.00056e-37 0)
(9.8437e-20 -9.74628e-21 0)
(5.03955e-14 -7.79875e-15 0)
(2.1703e-10 -4.20834e-11 0)
(7.67546e-08 -1.71195e-08 0)
(7.12908e-06 -1.76823e-06 0)
(0.000277039 -7.55377e-05 0)
(0.00581261 -0.00173915 0)
(0.0768105 -0.0252795 0)
(0.706888 -0.256953 0)
(4.86247 -1.9613 0)
(23.0702 -10.375 0)
(45.7638 -23.0552 0)
(44.7958 -25.4081 0)
(31.1976 -20.0283 0)
(9.68763 -7.07813 0)
(0.185227 -0.154874 0)
(0.000113894 -0.000109567 0)
(3.53345e-05 -3.93169e-05 0)
(-4.68371e-34 -4.59171e-35 0)
(1.24755e-19 3.3114e-21 0)
(7.0896e-14 -3.76135e-15 0)
(3.03833e-10 -3.47099e-11 0)
(1.03099e-07 -1.65765e-08 0)
(9.42126e-06 -1.87558e-06 0)
(0.000363725 -8.50594e-05 0)
(0.00761132 -0.00204131 0)
(0.099844 -0.0303669 0)
(0.899537 -0.308734 0)
(6.03628 -2.33405 0)
(24.2079 -10.5469 0)
(38.6319 -18.9878 0)
(35.045 -19.4756 0)
(20.2708 -12.7751 0)
(4.18779 -3.00335 0)
(-0.000189585 0.000155291 0)
(-9.75467e-06 9.16019e-06 0)
(1.5573e-06 -1.68301e-06 0)
(-3.40431e-34 -9.58548e-35 0)
(1.61204e-19 2.50891e-20 0)
(1.08285e-13 4.54803e-15 0)
(4.84205e-10 -1.95977e-11 0)
(1.59185e-07 -1.62905e-08 0)
(1.39942e-05 -2.13117e-06 0)
(0.00052469 -0.000102887 0)
(0.0106466 -0.0025283 0)
(0.134858 -0.0376193 0)
(1.16861 -0.376687 0)
(7.57651 -2.79646 0)
(24.0866 -10.1287 0)
(30.7491 -14.695 0)
(25.4633 -13.8212 0)
(11.711 -7.22451 0)
(1.2789 -0.898002 0)
(0.000621764 -0.000497903 0)
(1.48111e-06 -1.35575e-06 0)
(9.13171e-08 -9.57947e-08 0)
(0.180591 -0.260066 0)
(0.0104984 -0.0181651 0)
(0.00144504 -0.00303532 0)
(0.00120486 -0.00311148 0)
(0.00115461 -0.00372981 0)
(0.00165351 -0.00685391 0)
(0.00360955 -0.0199806 0)
(0.00841665 -0.0666144 0)
(0.0165768 -0.214903 0)
(0.0205422 -0.641822 0)
(-0.0174799 -1.76617 0)
(-0.223037 -4.52292 0)
(-0.932918 -10.7359 0)
(-2.92356 -23.7201 0)
(-7.78326 -48.9661 0)
(-18.425 -94.7094 0)
(-39.6729 -172.094 0)
(-78.6668 -294.271 0)
(-144.221 -472.666 0)
(-243.652 -708.869 0)
(-376.208 -983.825 0)
(-525.172 -1250.3 0)
(-666.768 -1463.26 0)
(-792.755 -1622.54 0)
(-892.288 -1721.82 0)
(-959.932 -1763.52 0)
(-994.314 -1753.72 0)
(-1000.15 -1704.82 0)
(-996.612 -1649.71 0)
(-990.139 -1597.81 0)
(-981.352 -1548.87 0)
(-970.651 -1502.72 0)
(-958.345 -1459.16 0)
(-944.685 -1417.99 0)
(-929.862 -1379.05 0)
(-914.021 -1342.19 0)
(-897.309 -1307.28 0)
(-879.834 -1274.15 0)
(-861.724 -1242.75 0)
(-843.009 -1212.9 0)
(-823.789 -1184.54 0)
(-804.104 -1157.55 0)
(-784.033 -1131.88 0)
(-763.603 -1107.46 0)
(-742.847 -1084.21 0)
(-721.791 -1062.06 0)
(-700.468 -1040.98 0)
(-678.883 -1020.87 0)
(-657.078 -1001.72 0)
(-635.063 -983.463 0)
(-612.858 -966.071 0)
(-590.479 -949.507 0)
(-567.925 -933.73 0)
(-545.216 -918.726 0)
(-522.341 -904.441 0)
(-499.319 -890.866 0)
(-476.161 -877.979 0)
(-452.858 -865.756 0)
(-429.414 -854.184 0)
(-405.83 -843.239 0)
(-382.116 -832.913 0)
(-358.283 -823.202 0)
(-334.304 -814.078 0)
(-310.197 -805.555 0)
(-285.973 -797.627 0)
(-261.616 -790.285 0)
(-237.136 -783.536 0)
(-212.537 -777.385 0)
(-187.821 -771.838 0)
(-163.001 -766.905 0)
(-138.073 -762.601 0)
(-113.053 -758.942 0)
(-87.9539 -755.953 0)
(-62.7943 -753.654 0)
(-37.6053 -752.081 0)
(-12.3975 -751.266 0)
(12.7822 -751.249 0)
(37.8886 -752.078 0)
(62.8642 -753.798 0)
(87.6266 -756.467 0)
(112.102 -760.14 0)
(136.168 -764.882 0)
(159.68 -770.747 0)
(182.464 -777.79 0)
(204.292 -786.048 0)
(224.907 -795.528 0)
(243.975 -806.192 0)
(261.098 -817.921 0)
(275.828 -830.468 0)
(287.661 -843.402 0)
(296.097 -856.005 0)
(300.751 -867.176 0)
(301.54 -875.311 0)
(299.014 -878.272 0)
(294.798 -873.475 0)
(292.05 -858.388 0)
(295.626 -831.339 0)
(2.19293e-05 -3.04378e-05 0)
(2.75247e-06 -4.53488e-06 0)
(7.32573e-07 -1.44486e-06 0)
(4.622e-07 -1.10254e-06 0)
(4.3419e-07 -1.27e-06 0)
(6.39943e-07 -2.34061e-06 0)
(1.68181e-06 -7.92146e-06 0)
(5.82779e-06 -3.70521e-05 0)
(2.02247e-05 -0.000188628 0)
(5.74926e-05 -0.000940001 0)
(7.92247e-05 -0.00433016 0)
(-0.000405719 -0.0183665 0)
(-0.00441379 -0.0727954 0)
(-0.0261268 -0.26682 0)
(-0.120542 -0.896155 0)
(-0.466298 -2.72765 0)
(-1.57767 -7.59295 0)
(-4.79514 -19.5327 0)
(-13.2463 -46.5639 0)
(-33.2633 -102.383 0)
(-75.6343 -206.369 0)
(-154.8 -378.973 0)
(-273.493 -608.333 0)
(-413.612 -846.331 0)
(-559.592 -1066.04 0)
(-697.096 -1250.35 0)
(-814.752 -1390.15 0)
(-904.36 -1481.03 0)
(-950.465 -1504.35 0)
(-962.54 -1479.86 0)
(-955.94 -1433.08 0)
(-946.633 -1387.89 0)
(-935.669 -1345.21 0)
(-923.268 -1304.77 0)
(-909.59 -1266.45 0)
(-894.809 -1230.12 0)
(-879.075 -1195.66 0)
(-862.531 -1162.93 0)
(-845.292 -1131.87 0)
(-827.394 -1102.32 0)
(-808.94 -1074.23 0)
(-789.981 -1047.48 0)
(-770.594 -1022.03 0)
(-750.805 -997.796 0)
(-730.659 -974.724 0)
(-710.18 -952.745 0)
(-689.401 -931.804 0)
(-668.336 -911.832 0)
(-647.024 -892.796 0)
(-625.485 -874.655 0)
(-603.732 -857.366 0)
(-581.788 -840.902 0)
(-559.651 -825.218 0)
(-537.342 -810.297 0)
(-514.858 -796.102 0)
(-492.209 -782.611 0)
(-469.414 -769.805 0)
(-446.463 -757.655 0)
(-423.366 -746.157 0)
(-400.119 -735.287 0)
(-376.734 -725.035 0)
(-353.225 -715.394 0)
(-329.57 -706.343 0)
(-305.784 -697.889 0)
(-281.877 -690.028 0)
(-257.838 -682.754 0)
(-233.677 -676.072 0)
(-209.4 -669.982 0)
(-185.012 -664.491 0)
(-160.527 -659.616 0)
(-135.94 -655.361 0)
(-111.273 -651.747 0)
(-86.5379 -648.795 0)
(-61.7561 -646.517 0)
(-36.9625 -644.951 0)
(-12.1692 -644.127 0)
(12.5749 -644.077 0)
(37.2215 -644.844 0)
(61.7117 -646.469 0)
(85.961 -648.997 0)
(109.894 -652.478 0)
(133.39 -656.956 0)
(156.308 -662.474 0)
(178.479 -669.068 0)
(199.689 -676.746 0)
(219.703 -685.498 0)
(238.222 -695.251 0)
(254.903 -705.855 0)
(269.381 -717.045 0)
(281.27 -728.376 0)
(290.237 -739.174 0)
(296.106 -748.441 0)
(299.028 -754.814 0)
(299.75 -756.57 0)
(299.94 -751.784 0)
(302.484 -738.749 0)
(311.541 -716.574 0)
(2.04088e-05 -2.73192e-05 0)
(5.04714e-07 -7.93859e-07 0)
(1.13842e-07 -2.1187e-07 0)
(7.92888e-08 -1.7608e-07 0)
(7.45554e-08 -1.9977e-07 0)
(1.06583e-07 -3.49963e-07 0)
(2.7206e-07 -1.11965e-06 0)
(9.46238e-07 -5.05192e-06 0)
(3.44498e-06 -2.5246e-05 0)
(1.12566e-05 -0.000125701 0)
(2.70583e-05 -0.000590717 0)
(1.15895e-05 -0.00255395 0)
(-0.000359657 -0.0103153 0)
(-0.0028388 -0.0389035 0)
(-0.0149947 -0.135936 0)
(-0.0641139 -0.434996 0)
(-0.236721 -1.28156 0)
(-0.786962 -3.53305 0)
(-2.40213 -9.1726 0)
(-6.75214 -22.3274 0)
(-17.4735 -50.7301 0)
(-41.6777 -107.489 0)
(-88.6418 -205.33 0)
(-163.639 -344.167 0)
(-264.97 -511.524 0)
(-382.289 -684.737 0)
(-507.171 -851.703 0)
(-627.819 -998.355 0)
(-734.811 -1116.47 0)
(-821.103 -1201.15 0)
(-880.544 -1247.86 0)
(-907.732 -1252.03 0)
(-911.974 -1228.75 0)
(-902.212 -1190.93 0)
(-889.644 -1153.27 0)
(-875.889 -1117.53 0)
(-861.102 -1083.55 0)
(-845.448 -1051.23 0)
(-829.045 -1020.53 0)
(-811.942 -991.322 0)
(-794.234 -963.521 0)
(-775.983 -937.036 0)
(-757.262 -911.816 0)
(-738.112 -887.795 0)
(-718.57 -864.922 0)
(-698.657 -843.121 0)
(-678.421 -822.351 0)
(-657.863 -802.52 0)
(-637.039 -783.616 0)
(-615.969 -765.598 0)
(-594.665 -748.424 0)
(-573.153 -732.069 0)
(-551.428 -716.485 0)
(-529.518 -701.66 0)
(-507.423 -687.558 0)
(-485.147 -674.153 0)
(-462.713 -661.436 0)
(-440.11 -649.368 0)
(-417.358 -637.947 0)
(-394.449 -627.153 0)
(-371.393 -616.976 0)
(-348.207 -607.411 0)
(-324.876 -598.438 0)
(-301.409 -590.055 0)
(-277.817 -582.257 0)
(-254.096 -575.05 0)
(-230.253 -568.431 0)
(-206.296 -562.402 0)
(-182.233 -556.968 0)
(-158.08 -552.144 0)
(-133.832 -547.935 0)
(-109.512 -544.358 0)
(-85.136 -541.436 0)
(-60.7245 -539.171 0)
(-36.3168 -537.606 0)
(-11.9265 -536.762 0)
(12.3962 -536.668 0)
(36.6004 -537.362 0)
(60.6264 -538.878 0)
(84.3894 -541.251 0)
(107.814 -544.524 0)
(130.78 -548.728 0)
(153.153 -553.891 0)
(174.771 -560.03 0)
(195.436 -567.138 0)
(214.934 -575.18 0)
(233.003 -584.065 0)
(249.35 -593.624 0)
(263.687 -603.584 0)
(275.73 -613.516 0)
(285.279 -622.795 0)
(292.318 -630.556 0)
(297.155 -635.662 0)
(300.641 -636.771 0)
(304.4 -632.496 0)
(311.024 -621.759 0)
(324.089 -604.269 0)
(1.87237e-06 -2.41825e-06 0)
(5.90202e-08 -8.88081e-08 0)
(1.47701e-08 -2.60409e-08 0)
(9.43056e-09 -1.96177e-08 0)
(8.82888e-09 -2.18681e-08 0)
(1.21527e-08 -3.6292e-08 0)
(2.98229e-08 -1.09309e-07 0)
(1.02933e-07 -4.75392e-07 0)
(3.85759e-07 -2.33867e-06 0)
(1.36929e-06 -1.16777e-05 0)
(4.06693e-06 -5.59394e-05 0)
(7.65203e-06 -0.000249851 0)
(-9.8825e-06 -0.00103364 0)
(-0.000194974 -0.00402841 0)
(-0.00126551 -0.0146478 0)
(-0.00608178 -0.0490357 0)
(-0.0244801 -0.151345 0)
(-0.0881415 -0.440745 0)
(-0.292746 -1.2244 0)
(-0.89618 -3.20789 0)
(-2.51024 -7.8207 0)
(-6.44511 -17.7099 0)
(-15.2433 -37.3546 0)
(-33.4182 -73.7537 0)
(-68.1018 -136.593 0)
(-126.51 -232.642 0)
(-207.075 -352.178 0)
(-305.465 -484.665 0)
(-411.264 -614.007 0)
(-517.802 -733.33 0)
(-616.271 -834.211 0)
(-700.316 -912.181 0)
(-767.559 -967.532 0)
(-816.166 -1000.52 0)
(-841.514 -1007.18 0)
(-848.671 -994.854 0)
(-842.695 -970.186 0)
(-828.6 -939.059 0)
(-813.017 -908.759 0)
(-796.684 -879.914 0)
(-779.703 -852.431 0)
(-762.151 -826.237 0)
(-744.082 -801.263 0)
(-725.559 -777.472 0)
(-706.607 -754.811 0)
(-687.252 -733.21 0)
(-667.539 -712.612 0)
(-647.486 -692.941 0)
(-627.145 -674.182 0)
(-606.537 -656.298 0)
(-585.671 -639.242 0)
(-564.585 -623.003 0)
(-543.272 -607.533 0)
(-521.753 -592.806 0)
(-500.042 -578.803 0)
(-478.137 -565.491 0)
(-456.062 -552.863 0)
(-433.808 -540.886 0)
(-411.394 -529.545 0)
(-388.823 -518.833 0)
(-366.096 -508.734 0)
(-343.231 -499.242 0)
(-320.219 -490.341 0)
(-297.069 -482.031 0)
(-273.796 -474.308 0)
(-250.39 -467.166 0)
(-226.864 -460.609 0)
(-203.224 -454.638 0)
(-179.484 -449.259 0)
(-155.659 -444.483 0)
(-131.744 -440.315 0)
(-107.767 -436.77 0)
(-83.7429 -433.865 0)
(-59.6954 -431.611 0)
(-35.6638 -430.039 0)
(-11.6642 -429.167 0)
(12.2519 -429.02 0)
(36.0319 -429.63 0)
(59.6157 -431.025 0)
(82.919 -433.233 0)
(105.866 -436.286 0)
(128.342 -440.206 0)
(150.218 -445.01 0)
(171.339 -450.697 0)
(191.524 -457.245 0)
(210.582 -464.603 0)
(228.283 -472.666 0)
(244.382 -481.255 0)
(258.658 -490.108 0)
(270.914 -498.822 0)
(281.053 -506.837 0)
(289.172 -513.417 0)
(295.676 -517.643 0)
(301.453 -518.502 0)
(308.029 -515.045 0)
(317.69 -506.681 0)
(333.518 -493.602 0)
(6.41731e-08 -8.00037e-08 0)
(6.04916e-09 -8.72286e-09 0)
(1.75951e-09 -2.94835e-09 0)
(7.57778e-10 -1.48404e-09 0)
(7.04205e-10 -1.62403e-09 0)
(9.36322e-10 -2.56904e-09 0)
(2.20829e-09 -7.31311e-09 0)
(7.51887e-09 -3.06831e-08 0)
(2.86133e-08 -1.4842e-07 0)
(1.06951e-07 -7.40869e-07 0)
(3.56752e-07 -3.6017e-06 0)
(9.29639e-07 -1.6533e-05 0)
(1.08235e-06 -7.06238e-05 0)
(-6.85476e-06 -0.000283511 0)
(-6.73126e-05 -0.00107252 0)
(-0.000377702 -0.00374433 0)
(-0.00167161 -0.0120319 0)
(-0.0065419 -0.0368937 0)
(-0.0240876 -0.111331 0)
(-0.0832072 -0.324621 0)
(-0.262055 -0.881236 0)
(-0.750641 -2.21049 0)
(-1.96139 -5.12211 0)
(-4.69304 -10.9822 0)
(-10.3558 -21.9076 0)
(-21.2968 -41.0432 0)
(-41.3787 -73.1516 0)
(-76.3883 -124.68 0)
(-131.985 -200.169 0)
(-204.865 -290.535 0)
(-290.402 -387.591 0)
(-379.434 -479.673 0)
(-466.134 -561.553 0)
(-546.446 -630.981 0)
(-616.227 -685.761 0)
(-673.331 -725.639 0)
(-717.606 -752.163 0)
(-747.9 -765.386 0)
(-762.091 -763.879 0)
(-764.45 -752.45 0)
(-758.536 -734.863 0)
(-746.752 -713.558 0)
(-731.005 -690.339 0)
(-713.13 -666.82 0)
(-694.762 -644.393 0)
(-675.954 -623.01 0)
(-656.749 -602.598 0)
(-637.191 -583.097 0)
(-617.325 -564.493 0)
(-597.172 -546.751 0)
(-576.75 -529.834 0)
(-556.087 -513.72 0)
(-535.18 -498.368 0)
(-514.053 -483.754 0)
(-492.717 -469.853 0)
(-471.183 -456.643 0)
(-449.465 -444.109 0)
(-427.559 -432.225 0)
(-405.483 -420.974 0)
(-383.243 -410.343 0)
(-360.845 -400.326 0)
(-338.3 -390.91 0)
(-315.605 -382.084 0)
(-292.771 -373.847 0)
(-269.813 -366.195 0)
(-246.72 -359.119 0)
(-223.508 -352.624 0)
(-200.185 -346.71 0)
(-176.763 -341.384 0)
(-153.261 -336.653 0)
(-129.676 -332.523 0)
(-106.035 -329.004 0)
(-82.3563 -326.113 0)
(-58.6643 -323.863 0)
(-34.9989 -322.277 0)
(-11.3778 -321.368 0)
(12.1466 -321.159 0)
(35.5208 -321.677 0)
(58.6841 -322.942 0)
(81.5542 -324.98 0)
(104.056 -327.806 0)
(126.08 -331.439 0)
(147.501 -335.882 0)
(168.178 -341.123 0)
(187.942 -347.126 0)
(206.625 -353.833 0)
(224.027 -361.126 0)
(239.947 -368.829 0)
(254.219 -376.692 0)
(266.715 -384.348 0)
(277.415 -391.314 0)
(286.496 -396.979 0)
(294.411 -400.624 0)
(302.038 -401.514 0)
(310.768 -399.048 0)
(322.572 -393.01 0)
(340.104 -384.016 0)
(-5.70754e-10 6.87088e-10 0)
(1.83652e-10 -2.54158e-10 0)
(5.4478e-11 -8.69942e-11 0)
(3.05825e-11 -5.66184e-11 0)
(2.84059e-11 -6.1352e-11 0)
(3.65428e-11 -9.28671e-11 0)
(8.28297e-11 -2.5062e-10 0)
(2.77106e-10 -1.0151e-09 0)
(1.06143e-09 -4.82345e-09 0)
(4.10476e-09 -2.40144e-08 0)
(1.47488e-08 -1.18072e-07 0)
(4.51415e-08 -5.54585e-07 0)
(9.75638e-08 -2.44937e-06 0)
(-2.81625e-09 -1.01359e-05 0)
(-1.5688e-06 -3.98273e-05 0)
(-1.12869e-05 -0.000144841 0)
(-5.59516e-05 -0.000481202 0)
(-0.000237098 -0.0015318 0)
(-0.000969157 -0.00500201 0)
(-0.0040964 -0.0175494 0)
(-0.0155354 -0.0567078 0)
(-0.0521383 -0.165287 0)
(-0.156131 -0.43624 0)
(-0.420069 -1.04669 0)
(-1.02619 -2.30234 0)
(-2.3141 -4.71255 0)
(-4.91593 -9.1483 0)
(-9.9944 -17.0933 0)
(-19.4952 -30.7938 0)
(-36.2643 -53.1379 0)
(-64.0306 -87.3973 0)
(-107.339 -137.05 0)
(-164.168 -196.914 0)
(-230.536 -260.903 0)
(-301.958 -323.9 0)
(-371.961 -379.918 0)
(-437.398 -427.314 0)
(-496.58 -466.12 0)
(-546.537 -495.125 0)
(-585.679 -514.155 0)
(-614.365 -524.463 0)