/*--------------------------------*- C++ -*----------------------------------*\
  =========                 |
  \\      /  F ield         | OpenFOAM: The Open Source CFD Toolbox
   \\    /   O peration     | Website:  https://openfoam.org
    \\  /    A nd           | Version:  7
     \\/     M anipulation  |
\*---------------------------------------------------------------------------*/
FoamFile
{
    version     2.0;
    format      ascii;
    class       volVectorField;
    location    "0";
    object      Fc;
}
// * * * * * * * * * * * * * * * * * * * * * * * * * * * * * * * * * * * * * //

dimensions      [1 -2 -2 0 0 0 0];

internalField   nonuniform List<vector> 
58002
(
(0 0 0)
(0 0 0)
(0 0 0)
(0 0 0)
(0 0 0)
(0 0 0)
(0 0 0)
(0 0 0)
(0 0 0)
(0 0 0)
(0 0 0)
(0 0 0)
(0 0 0)
(0 0 0)
(0 0 0)
(-1.31072e-315 -1.46645e-316 0)
(-6.21639e-311 -5.97692e-312 0)
(-1.67816e-306 -1.24112e-307 0)
(-2.62444e-302 -1.18296e-303 0)
(-2.43121e-298 -4.87494e-300 0)
(-1.37658e-294 8.48435e-297 0)
(-5.0343e-291 1.35874e-292 0)
(-1.21877e-287 5.46971e-289 0)
(-1.99057e-284 1.20939e-285 0)
(-2.24948e-281 1.56831e-282 0)
(-1.82237e-278 1.50851e-279 0)
(-1.28134e-275 1.05001e-276 0)
(-1.31772e-273 1.26924e-274 0)
(9.77528e-271 -9.10603e-272 0)
(1.26361e-267 -1.30027e-268 0)
(6.59981e-265 -6.94476e-266 0)
(3.28154e-263 -3.56945e-264 0)
(-4.19859e-258 4.71038e-259 0)
(-1.39162e-256 1.60406e-257 0)
(1.01811e-251 -1.20343e-252 0)
(1.3261e-250 -1.60435e-251 0)
(-2.23761e-247 2.76685e-248 0)
(-4.13671e-246 5.22229e-247 0)
(1.23899e-241 -1.59568e-242 0)
(4.5527e-238 -5.97724e-239 0)
(3.71888e-237 -4.97411e-238 0)
(-1.39535e-234 1.9001e-235 0)
(-1.32951e-232 1.84224e-233 0)
(-5.13462e-232 7.23548e-233 0)
(9.44503e-228 -1.3528e-228 0)
(1.26311e-226 -1.83774e-227 0)
(-4.93869e-222 7.29518e-223 0)
(-1.83249e-217 2.74669e-218 0)
(-2.91155e-216 4.42577e-217 0)
(1.88249e-211 -2.90046e-212 0)
(4.65401e-210 -7.2639e-211 0)
(-3.55669e-205 5.62036e-206 0)
(-8.19609e-204 1.31051e-204 0)
(5.15351e-199 -8.33333e-200 0)
(9.04629e-198 -1.47844e-198 0)
(-4.00601e-193 6.61324e-194 0)
(-4.44639e-192 7.40944e-193 0)
(1.03704e-187 -1.74324e-188 0)
(4.07989e-187 -6.9126e-188 0)
(-1.68112e-184 2.86846e-185 0)
(-1.49433e-183 2.56505e-184 0)
(3.15234e-179 -5.43745e-180 0)
(4.13277e-175 -7.15403e-176 0)
(2.05563e-174 -3.56628e-175 0)
(3.09758e-174 -5.37831e-175 0)
(-7.4013e-174 1.28435e-174 0)
(-1.72532e-170 2.98804e-171 0)
(-1.18313e-169 2.04191e-170 0)
(-3.89067e-169 6.67943e-170 0)
(-3.97678e-157 6.77611e-158 0)
(-6.37933e-156 1.07585e-156 0)
(-1.49965e-155 2.49499e-156 0)
(-1.68168e-155 2.75013e-156 0)
(-7.94782e-156 1.27262e-156 0)
(-1.228e-156 1.91684e-157 0)
(1.22849e-156 -1.85943e-157 0)
(5.49549e-156 -8.00954e-157 0)
(1.10358e-155 -1.53479e-156 0)
(1.33133e-155 -1.7465e-156 0)
(1.0999e-155 -1.34143e-156 0)
(3.6841e-156 -4.09813e-157 0)
(3.97879e-157 -3.92794e-158 0)
(-1.72128e-159 1.44541e-160 0)
(-1.56652e-160 1.04157e-161 0)
(-3.18995e-161 1.45904e-162 0)
(-5.15153e-162 1.08399e-163 0)
(-2.67976e-163 -2.30685e-165 0)
(-3.76956e-164 -1.68439e-165 0)
(-7.97897e-166 -7.11643e-167 0)
(4.54334e-166 6.57599e-167 0)
(-5.66556e-168 -1.21528e-168 0)
(9.23708e-178 2.79035e-178 0)
(-3.02051e-186 -1.23625e-186 0)
(-1.79469e-200 -9.2838e-201 0)
(-6.18883e-210 -3.18812e-210 0)
(0 0 0)
(0 0 0)
(0 0 0)
(0 0 0)
(0 0 0)
(0 0 0)
(0 0 0)
(0 0 0)
(0 0 0)
(0 0 0)
(0 0 0)
(0 0 0)
(0 0 0)
(0 0 0)
(0 0 0)
(-7.20779e-315 -7.79996e-316 0)
(-5.33524e-310 -4.90317e-311 0)
(-2.26175e-305 -1.56462e-306 0)
(-5.61371e-301 -2.2332e-302 0)
(-8.35233e-297 -1.19388e-298 0)
(-7.6232e-293 9.44385e-295 0)
(-4.35216e-289 1.46296e-290 0)
(-1.58242e-285 8.21451e-287 0)
(-3.69646e-282 2.51584e-283 0)
(-5.5917e-279 4.34199e-280 0)
(-5.43043e-276 4.89799e-277 0)
(-3.36536e-273 3.0851e-274 0)
(-1.28024e-270 1.32374e-271 0)
(-2.85399e-268 2.96047e-269 0)
(-3.33643e-266 3.69869e-267 0)
(-1.2159e-264 1.38745e-265 0)
(-1.68224e-261 1.97473e-262 0)
(-3.54952e-260 4.28619e-261 0)
(3.56301e-256 -4.41236e-257 0)
(2.0886e-252 -2.6497e-253 0)
(4.86908e-251 -6.31797e-252 0)
(-1.89568e-246 2.51236e-247 0)
(-2.1812e-243 2.94988e-244 0)
(-2.58505e-242 3.56504e-243 0)
(5.37141e-240 -7.54847e-241 0)
(3.20537e-236 -4.5872e-237 0)
(2.84065e-235 -4.13752e-236 0)
(-9.52828e-231 1.4118e-231 0)
(-1.13107e-229 1.70394e-230 0)
(3.98691e-225 -6.10344e-226 0)
(3.88772e-224 -6.04475e-225 0)
(-8.3613e-220 1.31975e-220 0)
(-7.89702e-216 1.26473e-216 0)
(-1.13043e-212 1.83602e-213 0)
(-2.02361e-209 3.33153e-210 0)
(-3.06111e-208 5.10564e-209 0)
(1.06291e-203 -1.79516e-204 0)
(1.01714e-202 -1.73862e-203 0)
(-2.20655e-198 3.81537e-199 0)
(-1.12028e-197 1.9585e-198 0)
(1.04514e-193 -1.84637e-194 0)
(8.826e-191 -1.57474e-191 0)
(9.71991e-188 -1.75042e-188 0)
(2.25187e-186 -4.09028e-187 0)
(-1.63613e-181 2.99512e-182 0)
(-3.42323e-180 6.3098e-181 0)
(1.73489e-175 -3.21652e-176 0)
(4.88107e-174 -9.09205e-175 0)
(1.1748e-173 -2.19592e-174 0)
(-8.94847e-171 1.67642e-171 0)
(-5.06013e-170 9.49006e-171 0)
(-5.13314e-170 9.62645e-171 0)
(3.64001e-169 -6.81744e-170 0)
(7.64126e-169 -1.42712e-169 0)
(-1.30662e-158 2.42871e-159 0)
(-3.68071e-155 6.79257e-156 0)
(-3.4012e-154 6.21436e-155 0)
(-7.04532e-154 1.27069e-154 0)
(-7.76626e-154 1.37847e-154 0)
(-4.02618e-154 7.00901e-155 0)
(-7.30715e-155 1.2424e-155 0)
(1.43651e-155 -2.37223e-156 0)
(5.72212e-155 -9.11257e-156 0)
(9.5458e-155 -1.45346e-155 0)
(1.11291e-154 -1.60373e-155 0)
(8.59081e-155 -1.1566e-155 0)
(2.62567e-155 -3.24399e-156 0)
(3.60017e-156 -3.97676e-157 0)
(2.24954e-157 -2.13695e-158 0)
(1.52644e-159 -1.1721e-160 0)
(-4.46817e-161 2.471e-162 0)
(-5.37684e-163 1.60057e-164 0)
(-1.28851e-163 -9.70859e-167 0)
(-2.33579e-164 -8.73904e-166 0)
(4.4264e-166 3.61539e-167 0)
(-7.93655e-168 -1.06774e-168 0)
(1.25565e-178 2.45041e-179 0)
(-1.80208e-187 -4.67481e-188 0)
(1.788e-195 5.46667e-196 0)
(-4.67916e-209 -1.24282e-209 0)
(0 0 0)
(0 0 0)
(0 0 0)
(0 0 0)
(0 0 0)
(0 0 0)
(0 0 0)
(0 0 0)
(0 0 0)
(0 0 0)
(0 0 0)
(0 0 0)
(0 0 0)
(0 0 0)
(0 0 0)
(-1.06367e-317 -1.11084e-318 0)
(-1.13751e-312 -9.96185e-314 0)
(-6.52255e-308 -4.19762e-309 0)
(-2.18953e-303 -7.54951e-305 0)
(-4.46008e-299 -3.81762e-301 0)
(-5.67027e-295 1.05267e-296 0)
(-4.38354e-291 1.76104e-292 0)
(-2.02416e-287 1.19125e-288 0)
(-5.76841e-284 4.34223e-285 0)
(-1.06337e-280 9.07932e-282 0)
(-1.37004e-277 1.33702e-278 0)
(-1.34319e-274 1.35252e-275 0)
(-1.00166e-271 1.10866e-272 0)
(-4.47408e-270 5.06181e-271 0)
(2.01862e-267 -2.40295e-268 0)
(9.01411e-265 -1.10723e-265 0)
(2.97432e-263 -3.75043e-264 0)
(-3.61482e-258 4.6768e-259 0)
(-8.68263e-257 1.15063e-257 0)
(5.96856e-252 -8.09522e-253 0)
(1.07165e-250 -1.48533e-251 0)
(-4.61242e-246 6.52565e-247 0)
(-5.43947e-245 7.84995e-246 0)
(6.08932e-241 -8.95753e-242 0)
(1.01056e-239 -1.51419e-240 0)
(-4.07889e-235 6.22169e-236 0)
(-1.11718e-230 1.73391e-231 0)
(-6.2881e-230 9.92552e-231 0)
(4.77384e-227 -7.65972e-228 0)
(4.51874e-223 -7.36643e-224 0)
(2.33065e-218 -3.85838e-219 0)
(2.30667e-217 -3.87623e-218 0)
(-7.20852e-213 1.22906e-213 0)
(-1.38548e-211 2.39568e-212 0)
(4.41516e-207 -7.73886e-208 0)
(3.82991e-204 -6.80166e-205 0)
(3.23773e-203 -5.82329e-204 0)
(-6.04603e-199 1.10079e-199 0)
(-3.24149e-197 5.97164e-198 0)
(-9.07234e-197 1.69039e-197 0)
(2.56646e-194 -4.83416e-195 0)
(1.16028e-190 -2.20825e-191 0)
(2.64438e-186 -5.08248e-187 0)
(3.37629e-185 -6.54918e-186 0)
(-9.15891e-181 1.79176e-181 0)
(-4.27096e-180 8.41954e-181 0)
(4.11665e-177 -8.17006e-178 0)
(5.16171e-174 -1.03024e-174 0)
(6.6938e-173 -1.3422e-173 0)
(2.75415e-171 -5.5421e-172 0)
(1.87656e-170 -3.78592e-171 0)
(-5.86866e-167 1.18596e-167 0)
(-3.80723e-166 7.69875e-167 0)
(-1.14311e-165 2.31002e-166 0)
(-5.60067e-161 1.12913e-161 0)
(-1.8813e-156 3.77577e-157 0)
(-2.87921e-153 5.73895e-154 0)
(-1.56234e-152 3.08536e-153 0)
(-2.65237e-152 5.17744e-153 0)
(-2.7096e-152 5.21451e-153 0)
(-1.1531e-152 2.18044e-153 0)
(-1.96386e-153 3.63231e-154 0)
(-1.32988e-154 2.3924e-155 0)
(2.23074e-154 -3.87852e-155 0)
(2.95786e-154 -4.93539e-155 0)
(2.80156e-154 -4.44669e-155 0)
(1.31172e-154 -1.9564e-155 0)
(2.36223e-155 -3.25537e-156 0)
(2.41317e-156 -3.00468e-157 0)
(1.48463e-157 -1.61909e-158 0)
(3.98263e-159 -3.62377e-160 0)
(3.91841e-162 -2.73214e-163 0)
(-4.22711e-164 1.89958e-165 0)
(-1.42861e-163 2.33903e-165 0)
(2.26347e-166 3.76944e-168 0)
(-6.42033e-168 -3.46198e-169 0)
(-9.6968e-180 -8.91953e-181 0)
(-1.36119e-188 -1.7169e-189 0)
(1.99046e-194 2.82362e-195 0)
(-7.51458e-209 -8.01785e-210 0)
(0 0 0)
(0 0 0)
(0 0 0)
(0 0 0)
(0 0 0)
(0 0 0)
(0 0 0)
(0 0 0)
(0 0 0)
(0 0 0)
(0 0 0)
(0 0 0)
(0 0 0)
(0 0 0)
(0 0 0)
(2.39666e-317 2.41252e-318 0)
(1.89077e-312 1.57424e-313 0)
(8.86649e-308 5.27919e-309 0)
(2.57419e-303 7.51324e-305 0)
(4.90914e-299 1.38953e-301 0)
(6.56494e-295 -1.62362e-296 0)
(6.18017e-291 -2.88724e-292 0)
(3.5586e-288 -2.33996e-289 0)
(-2.46865e-284 2.03487e-285 0)
(-1.31197e-280 1.21936e-281 0)
(-3.41048e-277 3.57741e-278 0)
(-5.48226e-274 5.98409e-275 0)
(-5.76572e-271 6.80425e-272 0)
(-3.97526e-268 4.84078e-269 0)
(-1.75434e-265 2.23073e-266 0)
(-3.63472e-263 4.76729e-264 0)
(-6.07737e-262 8.16286e-263 0)
(1.71259e-257 -2.35606e-258 0)
(3.26426e-254 -4.59739e-255 0)
(3.0944e-253 -4.4555e-254 0)
(-4.2557e-251 6.25619e-252 0)
(-1.3295e-245 1.99413e-246 0)
(-4.03473e-244 6.17083e-245 0)
(2.86063e-239 -4.4578e-240 0)
(3.71381e-238 -5.89268e-239 0)
(-3.74406e-236 6.04583e-237 0)
(-1.68046e-231 2.76044e-232 0)
(-1.1988e-230 2.00234e-231 0)
(8.10881e-229 -1.37649e-229 0)
(5.38773e-224 -9.29067e-225 0)
(2.36535e-219 -4.14168e-220 0)
(2.59986e-218 -4.62061e-219 0)
(-2.24545e-214 4.04897e-215 0)
(-4.16591e-213 7.61828e-214 0)
(1.30709e-208 -2.42311e-209 0)
(6.55435e-205 -1.23122e-205 0)
(7.38451e-204 -1.40504e-204 0)
(-8.88369e-201 1.71139e-201 0)
(-5.54008e-198 1.08017e-198 0)
(-2.53542e-197 5.00122e-198 0)
(1.47881e-193 -2.94991e-194 0)
(1.09691e-191 -2.21181e-192 0)
(2.71897e-187 -5.53929e-188 0)
(4.9188e-186 -1.01191e-186 0)
(-2.33266e-181 4.84277e-182 0)
(-2.29526e-180 4.80514e-181 0)
(4.77306e-179 -1.00677e-179 0)
(6.48365e-175 -1.37659e-175 0)
(3.39469e-173 -7.24801e-174 0)
(2.98409e-172 -6.40139e-173 0)
(-6.37222e-167 1.37232e-167 0)
(-3.72314e-166 8.04361e-167 0)
(-2.7886e-166 6.03875e-167 0)
(5.24825e-161 -1.13792e-161 0)
(9.44391e-160 -2.04702e-160 0)
(1.37703e-159 -2.97832e-160 0)
(-5.50903e-154 1.18654e-154 0)
(-1.66376e-151 3.56164e-152 0)
(-6.09679e-151 1.29494e-151 0)
(-8.95948e-151 1.88436e-151 0)
(-8.40156e-151 1.74495e-151 0)
(-2.99383e-151 6.1174e-152 0)
(-4.77554e-152 9.55761e-153 0)
(-6.20168e-153 1.21014e-153 0)
(-2.09634e-154 3.96923e-155 0)
(3.85624e-154 -7.04174e-155 0)
(3.55887e-154 -6.21388e-155 0)
(8.87805e-155 -1.46576e-155 0)
(1.39474e-155 -2.14938e-156 0)
(1.3717e-156 -1.94206e-157 0)
(3.45482e-158 -4.39111e-159 0)
(9.69193e-160 -1.0683e-160 0)
(1.06908e-161 -9.75103e-163 0)
(-1.4398e-163 1.01781e-164 0)
(-4.07623e-167 1.98404e-168 0)
(-2.20952e-169 5.73443e-171 0)
(-1.76828e-179 1.30817e-181 0)
(-1.04229e-180 -2.80039e-183 0)
(1.09265e-193 -1.24399e-196 0)
(-2.25293e-208 3.45855e-210 0)
(0 0 0)
(0 0 0)
(0 0 0)
(0 0 0)
(0 0 0)
(0 0 0)
(0 0 0)
(0 0 0)
(0 0 0)
(0 0 0)
(0 0 0)
(0 0 0)
(0 0 0)
(0 0 0)
(0 0 0)
(1.28625e-318 1.24628e-319 0)
(1.52209e-313 1.20168e-314 0)
(9.21637e-309 5.04437e-310 0)
(3.41949e-304 8.1732e-306 0)
(7.8288e-300 -2.26413e-302 0)
(1.12854e-295 -3.48557e-297 0)
(1.0405e-291 -5.53977e-293 0)
(6.21089e-288 -4.51047e-289 0)
(2.44913e-284 -2.19273e-285 0)
(6.41758e-281 -6.44394e-282 0)
(1.11733e-277 -1.25438e-278 0)
(1.27824e-274 -1.50253e-275 0)
(9.30029e-272 -1.17146e-272 0)
(4.04307e-269 -5.28638e-270 0)
(9.20069e-267 -1.25075e-267 0)
(5.77483e-265 -8.07763e-266 0)
(1.13242e-262 -1.61881e-263 0)
(4.18495e-259 -6.12338e-260 0)
(4.82886e-256 -7.22778e-257 0)
(4.78734e-253 -7.31677e-254 0)
(5.91506e-252 -9.22357e-253 0)
(-2.63043e-247 4.18352e-248 0)
(-6.97387e-246 1.13053e-246 0)
(3.54469e-241 -5.85233e-242 0)
(1.2908e-239 -2.16916e-240 0)
(2.51398e-237 -4.29841e-238 0)
(3.30706e-236 -5.75096e-237 0)
(-1.20581e-231 2.13172e-232 0)
(-8.70122e-231 1.56307e-231 0)
(1.37969e-226 -2.51735e-227 0)
(3.72474e-224 -6.90019e-225 0)
(4.04565e-221 -7.60677e-222 0)
(1.03587e-216 -1.97609e-217 0)
(1.07895e-215 -2.08743e-216 0)
(-2.6011e-211 5.1017e-212 0)
(-1.40617e-210 2.79497e-211 0)
(2.57436e-206 -5.1836e-207 0)
(1.2715e-204 -2.59269e-205 0)
(1.76892e-200 -3.65147e-201 0)
(2.47935e-196 -5.17932e-197 0)
(2.69118e-194 -5.68715e-195 0)
(2.14809e-193 -4.59046e-194 0)
(7.12486e-189 -1.53903e-189 0)
(1.40493e-186 -3.0661e-187 0)
(-3.66924e-181 8.08569e-182 0)
(-2.86319e-179 6.36664e-180 0)
(-2.19448e-177 4.92008e-178 0)
(5.64216e-175 -1.27438e-175 0)
(8.11839e-172 -1.84573e-172 0)
(3.04109e-171 -6.9541e-172 0)
(-7.39555e-167 1.69988e-167 0)
(-3.90755e-165 9.02279e-166 0)
(-1.08796e-164 2.52199e-165 0)
(9.07264e-162 -2.10935e-162 0)
(1.83978e-160 -4.28426e-161 0)
(4.11735e-160 -9.58751e-161 0)
(7.16765e-159 -1.66613e-159 0)
(-2.21354e-151 5.12894e-152 0)
(-7.11896e-150 1.64216e-150 0)
(-2.02472e-149 4.64275e-150 0)
(-2.71858e-149 6.18293e-150 0)
(-2.35405e-149 5.2938e-150 0)
(-7.53404e-150 1.66952e-150 0)
(-1.07975e-150 2.35037e-151 0)
(-1.32811e-151 2.83108e-152 0)
(-1.2035e-152 2.50188e-153 0)
(-1.85665e-154 3.74128e-155 0)
(5.73381e-154 -1.11189e-154 0)
(3.8481e-154 -7.13112e-155 0)
(6.43468e-155 -1.13123e-155 0)
(4.80874e-156 -7.93548e-157 0)
(1.9341e-157 -2.95264e-158 0)
(1.46215e-160 -2.03768e-161 0)
(9.82521e-163 -1.24281e-163 0)
(-2.58808e-165 2.9743e-166 0)
(-3.10751e-169 3.28813e-170 0)
(4.2024e-174 -4.39528e-175 0)
(-6.95847e-179 8.13538e-180 0)
(6.61741e-193 -9.37453e-194 0)
(-5.59294e-210 8.28723e-211 0)
(0 0 0)
(0 0 0)
(0 0 0)
(0 0 0)
(0 0 0)
(0 0 0)
(0 0 0)
(0 0 0)
(0 0 0)
(0 0 0)
(0 0 0)
(0 0 0)
(0 0 0)
(0 0 0)
(0 0 0)
(0 0 0)
(-1.47453e-314 -1.10068e-315 0)
(-4.44562e-310 -2.21972e-311 0)
(-6.84793e-306 -1.27542e-307 0)
(5.96932e-303 -5.13863e-305 0)
(9.22255e-298 -3.41491e-299 0)
(1.2973e-293 -7.75136e-295 0)
(1.03263e-289 -8.20638e-291 0)
(5.0201e-286 -4.85089e-287 0)
(1.47533e-282 -1.59185e-283 0)
(2.76437e-279 -3.31279e-280 0)
(3.31267e-276 -4.17736e-277 0)
(2.50602e-273 -3.36986e-274 0)
(1.12466e-270 -1.57409e-271 0)
(2.69605e-268 -3.90697e-269 0)
(1.9886e-266 -2.9569e-267 0)
(2.3964e-264 -3.64036e-265 0)
(4.26769e-260 -6.63286e-261 0)
(7.39088e-259 -1.17344e-259 0)
(-1.78977e-254 2.89852e-255 0)
(-3.7003e-251 6.11166e-252 0)
(-3.42335e-250 5.76518e-251 0)
(1.95511e-247 -3.35451e-248 0)
(8.47444e-243 -1.48021e-243 0)
(1.95462e-241 -3.474e-242 0)
(-1.13243e-236 2.04743e-237 0)
(-1.75156e-235 3.22028e-236 0)
(6.4462e-231 -1.2046e-231 0)
(5.25734e-230 -9.98113e-231 0)
(-7.753e-226 1.49485e-226 0)
(-6.93751e-223 1.35802e-223 0)
(-1.83683e-220 3.64927e-221 0)
(-7.56148e-216 1.52416e-216 0)
(-6.0468e-215 1.23615e-215 0)
(1.59312e-211 -3.30193e-212 0)
(9.7074e-210 -2.03914e-210 0)
(-1.97921e-204 4.21232e-205 0)
(-9.88207e-202 2.13026e-202 0)
(-3.27234e-201 7.14281e-202 0)
(1.52359e-197 -3.36644e-198 0)
(4.69766e-194 -1.05037e-194 0)
(1.01513e-192 -2.29612e-193 0)
(-5.33627e-188 1.22057e-188 0)
(-4.39074e-186 1.01515e-186 0)
(-9.78939e-183 2.28663e-183 0)
(-3.71647e-181 8.7651e-182 0)
(9.42751e-177 -2.24338e-177 0)
(5.23154e-174 -1.25512e-174 0)
(7.96373e-173 -1.92485e-173 0)
(-3.32409e-171 8.08917e-172 0)
(-1.39431e-167 3.41447e-168 0)
(-8.97584e-166 2.21097e-166 0)
(-2.5663e-165 6.35522e-166 0)
(-2.13708e-165 5.31622e-166 0)
(1.24695e-157 -3.11221e-158 0)
(1.45266e-156 -3.63241e-157 0)
(3.0604e-156 -7.65624e-157 0)
(-5.34481e-153 1.33631e-153 0)
(-1.55344e-149 3.87824e-150 0)
(-1.94601e-148 4.84593e-149 0)
(-4.57811e-148 1.13504e-148 0)
(-5.76973e-148 1.4206e-148 0)
(-4.99024e-148 1.21709e-148 0)
(-2.93695e-148 7.0813e-149 0)
(-2.36801e-148 5.63408e-149 0)
(-2.28484e-148 5.34958e-149 0)
(-1.3792e-148 3.1645e-149 0)
(-1.21769e-149 2.72585e-150 0)
(-1.66017e-150 3.61402e-151 0)
(-7.81921e-152 1.65124e-152 0)
(3.90468e-154 -7.97123e-155 0)
(6.46956e-156 -1.27112e-156 0)
(1.62688e-157 -3.07313e-158 0)
(1.99049e-159 -3.64694e-160 0)
(3.07791e-164 -5.58635e-165 0)
(-4.70234e-166 8.70763e-167 0)
(1.25122e-169 -2.5054e-170 0)
(-1.2102e-178 2.85006e-179 0)
(5.15452e-188 -1.51503e-188 0)
(1.61067e-215 -5.54645e-216 0)
(-9.51929e-67 4.75864e-67 0)
(8.31465e-51 -4.18109e-51 0)
(2.78444e-39 -1.17541e-39 0)
(7.64309e-32 -2.70936e-32 0)
(8.566e-27 -2.65646e-27 0)
(4.21974e-23 -1.20477e-23 0)
(3.80038e-20 -1.04862e-20 0)
(1.07977e-17 -3.00002e-18 0)
(1.44241e-15 -4.17415e-16 0)
(1.14038e-13 -3.53302e-14 0)
(6.1298e-12 -2.07672e-12 0)
(2.45825e-10 -9.25237e-11 0)
(7.76113e-09 -3.28546e-09 0)
(1.98255e-07 -9.53759e-08 0)
(4.12132e-06 -2.27362e-06 0)
(6.92718e-05 -4.41746e-05 0)
(0.000926143 -0.000687633 0)
(0.00963589 -0.0083843 0)
(0.0759305 -0.0778506 0)
(4.87015e-67 -1.30266e-67 0)
(7.79642e-51 -2.51252e-51 0)
(2.36573e-39 -7.17789e-40 0)
(7.10454e-32 -1.95829e-32 0)
(9.76311e-27 -2.49336e-27 0)
(5.49558e-23 -1.3523e-23 0)
(5.69605e-20 -1.40754e-20 0)
(1.84598e-17 -4.73491e-18 0)
(2.7645e-15 -7.56311e-16 0)
(2.39178e-13 -7.13558e-14 0)
(1.37352e-11 -4.54115e-12 0)
(5.72728e-10 -2.12243e-10 0)
(1.8208e-08 -7.63113e-09 0)
(4.5315e-07 -2.16433e-07 0)
(8.90879e-06 -4.88055e-06 0)
(0.000138253 -8.73555e-05 0)
(0.00167837 -0.00122918 0)
(0.0157043 -0.0133908 0)
(0.110226 -0.109833 0)
(1.09108e-66 -1.3127e-67 0)
(9.08923e-51 -1.64251e-51 0)
(2.37828e-39 -4.63905e-40 0)
(8.39064e-32 -1.65687e-32 0)
(1.19082e-26 -2.37566e-27 0)
(7.18315e-23 -1.47315e-23 0)
(7.87723e-20 -1.70234e-20 0)
(2.76285e-17 -6.43742e-18 0)
(4.43597e-15 -1.13549e-15 0)
(4.04852e-13 -1.15431e-13 0)
(2.41027e-11 -7.72532e-12 0)
(1.02016e-09 -3.70017e-10 0)
(3.21673e-08 -1.32768e-08 0)
(7.76745e-07 -3.66556e-07 0)
(1.45384e-05 -7.87421e-06 0)
(0.000211793 -0.00013207 0)
(0.00239235 -0.00172269 0)
(0.020741 -0.0172944 0)
(0.133664 -0.129345 0)
(4.10777e-66 -3.3097e-68 0)
(1.01761e-50 -5.80886e-52 0)
(2.87375e-39 -2.73543e-40 0)
(1.04825e-31 -1.28032e-32 0)
(1.64168e-26 -2.35884e-27 0)
(1.06375e-22 -1.73704e-23 0)
(1.19708e-19 -2.20355e-20 0)
(4.51075e-17 -9.40003e-18 0)
(7.65544e-15 -1.81538e-15 0)
(7.2719e-13 -1.96684e-13 0)
(4.43003e-11 -1.36813e-11 0)
(1.87862e-09 -6.63479e-10 0)
(5.81072e-08 -2.35136e-08 0)
(1.35083e-06 -6.27269e-07 0)
(2.39693e-05 -1.27857e-05 0)
(0.000327429 -0.000200831 0)
(0.00344281 -0.00243109 0)
(0.0277295 -0.0225721 0)
(0.156143 -0.146658 0)
(-3.82989e-58 -4.36853e-59 0)
(1.20146e-50 7.59161e-52 0)
(3.71002e-39 -2.95589e-42 0)
(1.48109e-31 -7.43895e-33 0)
(2.54687e-26 -2.26101e-27 0)
(1.78696e-22 -2.16637e-23 0)
(1.97984e-19 -3.00152e-20 0)
(7.88813e-17 -1.44439e-17 0)
(1.39038e-14 -3.01978e-15 0)
(1.35523e-12 -3.44797e-13 0)
(8.33222e-11 -2.4635e-11 0)
(3.49469e-09 -1.19567e-09 0)
(1.04931e-07 -4.1445e-08 0)
(2.3304e-06 -1.0605e-06 0)
(3.90155e-05 -2.04217e-05 0)
(0.000498478 -0.000299794 0)
(0.00487481 -0.0033675 0)
(0.0364846 -0.0289483 0)
(0.173478 -0.158064 0)
(-3.11375e-58 -9.21078e-59 0)
(1.46247e-50 2.77123e-51 0)
(5.32372e-39 4.76357e-40 0)
(2.30723e-31 4.09419e-33 0)
(4.38304e-26 -1.58028e-27 0)
(3.41017e-22 -2.73052e-23 0)
(3.65422e-19 -4.36384e-20 0)
(1.48834e-16 -2.34577e-17 0)
(2.66779e-14 -5.24332e-15 0)
(2.62788e-12 -6.23819e-13 0)
(1.60671e-10 -4.52159e-11 0)
(6.58083e-09 -2.17138e-09 0)
(1.89927e-07 -7.29333e-08 0)
(4.00094e-06 -1.77788e-06 0)
(6.29236e-05 -3.22155e-05 0)
(0.000750056 -0.000441146 0)
(0.00681499 -0.00459632 0)
(0.0474587 -0.0366579 0)
(0.179591 -0.158668 0)
(0.352501 -0.426705 0)
(0.56238 -0.804118 0)
(0.452864 -0.765567 0)
(0.200447 -0.400914 0)
(0.0201219 -0.0476801 0)
(-4.30561e-06 1.21189e-05 0)
(-1.48994e-06 5.0041e-06 0)
(-4.16544e-08 1.68139e-07 0)
(-4.69016e-12 2.30013e-11 0)
(1.43749e-10 -8.7038e-10 0)
(1.30363e-09 -9.98281e-09 0)
(9.82522e-09 -9.87754e-08 0)
(5.46392e-08 -7.67307e-07 0)
(2.17892e-07 -4.80817e-06 0)
(5.33711e-07 -2.49485e-05 0)
(-9.93924e-08 -0.000110224 0)
(-9.4974e-06 -0.000434611 0)
(-6.48318e-05 -0.00155437 0)
(-0.000308685 -0.00508618 0)
(-0.0012098 -0.0153149 0)
(-0.0041463 -0.0428327 0)
(-0.0128006 -0.112011 0)
(-0.0362275 -0.275304 0)
(-0.0952359 -0.639606 0)
(-0.235425 -1.41506 0)
(-0.553274 -3.00375 0)
(-1.245 -6.14579 0)
(-2.68881 -12.125 0)
(-5.56765 -23.0073 0)
(-11.0247 -41.8302 0)
(-20.7868 -72.5114 0)
(-37.0849 -119.09 0)
(-62.086 -183.927 0)
(-96.6139 -265.029 0)
(-138.594 -354.146 0)
(-181.667 -435.795 0)
(-222.117 -504.501 0)
(-257.284 -558.163 0)
(-285.076 -595.733 0)
(-304.743 -618.251 0)
(-316.507 -627.768 0)
(-321.087 -626.433 0)
(-319.778 -616.781 0)
(-315.838 -604.641 0)
(-311.075 -593.066 0)
(-305.641 -582.022 0)
(-299.648 -571.507 0)
(-293.157 -561.483 0)
(-286.237 -551.937 0)
(-278.94 -542.85 0)
(-271.308 -534.204 0)
(-263.372 -525.984 0)
(-255.155 -518.167 0)
(-246.687 -510.746 0)
(-237.988 -503.699 0)
(-229.08 -497.022 0)
(-219.984 -490.704 0)
(-210.71 -484.732 0)
(-201.277 -479.106 0)
(-191.694 -473.811 0)
(-181.976 -468.844 0)
(-172.139 -464.204 0)
(-162.184 -459.884 0)
(-152.127 -455.886 0)
(-141.982 -452.211 0)
(-131.75 -448.856 0)
(-121.448 -445.827 0)
(-111.085 -443.126 0)
(-100.674 -440.761 0)
(-90.2335 -438.741 0)
(-79.7706 -437.072 0)
(-69.3074 -435.769 0)
(-58.8631 -434.848 0)
(-48.4602 -434.319 0)
(-38.1296 -434.207 0)
(-27.8954 -434.534 0)
(-17.7985 -435.322 0)
(-7.88448 -436.603 0)
(1.79354 -438.405 0)
(11.167 -440.763 0)
(20.1626 -443.713 0)
(28.6818 -447.291 0)
(36.6072 -451.536 0)
(43.7965 -456.474 0)
(50.0748 -462.128 0)
(55.2359 -468.508 0)
(59.025 -475.582 0)
(61.1394 -483.275 0)
(61.2293 -491.439 0)
(58.903 -499.806 0)
(53.7514 -507.931 0)
(45.4177 -515.137 0)
(33.707 -520.437 0)
(18.7625 -522.513 0)
(1.34054 -519.774 0)
(-16.9619 -510.635 0)
(-33.6284 -494.04 0)
(0.377205 -0.439531 0)
(0.458424 -0.624422 0)
(0.331361 -0.527768 0)
(0.111088 -0.206922 0)
(0.00485012 -0.0105722 0)
(-3.49501e-06 8.92958e-06 0)
(-9.77487e-07 2.93602e-06 0)
(-9.30156e-09 3.30047e-08 0)
(-7.97296e-14 3.36669e-13 0)
(1.13112e-14 -5.74569e-14 0)
(2.46825e-17 -1.53216e-16 0)
(3.41887e-16 -2.65437e-15 0)
(6.31518e-15 -6.35362e-14 0)
(8.86333e-14 -1.22426e-12 0)
(9.03283e-13 -1.9052e-11 0)
(5.72604e-12 -2.37558e-10 0)
(5.19761e-12 -2.37583e-09 0)
(-3.84015e-10 -2.06602e-08 0)
(-6.3299e-09 -1.64658e-07 0)
(-7.0462e-08 -1.22373e-06 0)
(-6.14081e-07 -8.0607e-06 0)
(-4.44618e-06 -4.70887e-05 0)
(-2.73027e-05 -0.000242772 0)
(-0.000142909 -0.00109533 0)
(-0.000655449 -0.00441026 0)
(-0.00274724 -0.0164415 0)
(-0.0108246 -0.0581676 0)
(-0.0401424 -0.194997 0)
(-0.137333 -0.605904 0)
(-0.432529 -1.73866 0)
(-1.25619 -4.61023 0)
(-3.36069 -11.2776 0)
(-8.24429 -25.3381 0)
(-18.4105 -51.9565 0)
(-36.9597 -96.1894 0)
(-67.4903 -163.065 0)
(-106.328 -240.538 0)
(-148.39 -317.254 0)
(-189.543 -386.624 0)
(-226.397 -444.625 0)
(-256.953 -489.965 0)
(-280.316 -522.888 0)
(-296.531 -544.649 0)
(-304.063 -552.842 0)
(-304.269 -549.909 0)
(-299.893 -540.568 0)
(-294.175 -530.356 0)
(-287.94 -520.587 0)
(-281.268 -511.268 0)
(-274.209 -502.373 0)
(-266.806 -493.902 0)
(-259.09 -485.843 0)
(-251.084 -478.171 0)
(-242.819 -470.879 0)
(-234.318 -463.952 0)
(-225.604 -457.384 0)
(-216.697 -451.167 0)
(-207.606 -445.286 0)
(-198.352 -439.74 0)
(-188.947 -434.524 0)
(-179.403 -429.627 0)
(-169.738 -425.051 0)
(-159.957 -420.789 0)
(-150.072 -416.844 0)
(-140.098 -413.216 0)
(-130.039 -409.902 0)
(-119.911 -406.907 0)
(-109.726 -404.236 0)
(-99.4963 -401.891 0)
(-89.2412 -399.885 0)
(-78.9695 -398.22 0)
(-68.704 -396.91 0)
(-58.4654 -395.97 0)
(-48.2774 -395.41 0)
(-38.1723 -395.25 0)
(-28.1757 -395.51 0)
(-18.3293 -396.209 0)
(-8.68047 -397.375 0)
(0.716416 -399.029 0)
(9.79214 -401.201 0)
(18.4728 -403.918 0)
(26.6606 -407.206 0)
(34.2402 -411.092 0)
(41.0737 -415.59 0)
(46.9947 -420.704 0)
(51.8104 -426.424 0)
(55.2881 -432.697 0)
(57.1596 -439.423 0)
(57.126 -446.437 0)
(54.8693 -453.454 0)
(50.0824 -460.042 0)
(42.5382 -465.583 0)
(32.1877 -469.215 0)
(19.301 -469.855 0)
(4.66849 -466.274 0)
(-10.2667 -457.339 0)
(-23.3934 -442.398 0)
(0.360708 -0.404934 0)
(0.39491 -0.513735 0)
(0.273093 -0.411589 0)
(0.0828813 -0.144677 0)
(0.00193541 -0.00391347 0)
(-3.62039e-06 8.48742e-06 0)
(-8.11122e-07 2.2089e-06 0)
(-3.9827e-10 1.26406e-09 0)
(-4.77203e-12 1.77424e-11 0)
(3.14003e-15 -1.37795e-14 0)
(3.59961e-18 -1.88484e-17 0)
(3.47694e-17 -2.20667e-16 0)
(6.60194e-16 -5.19558e-15 0)
(9.87998e-15 -9.97828e-14 0)
(1.14364e-13 -1.56633e-12 0)
(9.69712e-13 -1.98969e-11 0)
(5.24434e-12 -2.02512e-10 0)
(7.69832e-12 -1.81491e-09 0)
(-2.46593e-10 -1.49894e-08 0)
(-4.30029e-09 -1.18187e-07 0)
(-4.60275e-08 -8.25629e-07 0)
(-3.82043e-07 -5.11347e-06 0)
(-2.61017e-06 -2.79321e-05 0)
(-1.48804e-05 -0.000132723 0)
(-7.31852e-05 -0.000559132 0)
(-0.000326807 -0.00217942 0)
(-0.00137477 -0.00811105 0)
(-0.00549533 -0.0289629 0)
(-0.0205916 -0.097628 0)
(-0.0709571 -0.304149 0)
(-0.225638 -0.877549 0)
(-0.665833 -2.35595 0)
(-1.83468 -5.91999 0)
(-4.73211 -13.9596 0)
(-11.3237 -30.6405 0)
(-23.9487 -59.716 0)
(-44.8809 -103.782 0)
(-73.7042 -159.293 0)
(-107.758 -219.59 0)
(-143.883 -279.008 0)
(-178.742 -332.817 0)
(-209.967 -378.627 0)
(-236.107 -415.558 0)
(-256.642 -443.927 0)
(-271.379 -464.056 0)
(-280.527 -476.567 0)
(-283.337 -480.118 0)
(-281.358 -477.13 0)
(-276.329 -470.337 0)
(-269.585 -461.784 0)
(-262.401 -453.493 0)
(-254.896 -445.596 0)
(-247.094 -438.073 0)
(-239.025 -430.914 0)
(-230.717 -424.11 0)
(-222.19 -417.652 0)
(-213.465 -411.538 0)
(-204.554 -405.751 0)
(-195.475 -400.289 0)
(-186.243 -395.149 0)
(-176.87 -390.324 0)
(-167.374 -385.812 0)
(-157.761 -381.61 0)
(-148.045 -377.716 0)
(-138.24 -374.135 0)
(-128.351 -370.862 0)
(-118.394 -367.901 0)
(-108.381 -365.256 0)
(-98.3284 -362.931 0)
(-88.2538 -360.933 0)
(-78.1677 -359.269 0)
(-68.0937 -357.949 0)
(-58.0538 -356.986 0)
(-48.0724 -356.389 0)
(-38.183 -356.176 0)
(-28.4124 -356.363 0)
(-18.8033 -356.967 0)
(-9.40351 -358.009 0)
(-0.268428 -359.508 0)
(8.53284 -361.485 0)
(16.9266 -363.961 0)
(24.8163 -366.953 0)
(32.0902 -370.476 0)
(38.6161 -374.531 0)
(44.2369 -379.111 0)
(48.7743 -384.184 0)
(52.0183 -389.684 0)
(53.7338 -395.495 0)
(53.6691 -401.439 0)
(51.5707 -407.231 0)
(47.2152 -412.465 0)
(40.4754 -416.589 0)
(31.4044 -418.867 0)
(20.347 -418.428 0)
(8.08452 -414.336 0)
(-4.09673 -405.794 0)
(-14.4085 -392.443 0)
(0.343888 -0.372205 0)
(0.323224 -0.402431 0)
(0.203494 -0.291244 0)
(0.048417 -0.0796059 0)
(6.91537e-05 -0.000130586 0)
(-4.17661e-06 9.06155e-06 0)
(-5.88306e-07 1.4682e-06 0)
(-9.08649e-12 2.61423e-11 0)
(2.1221e-14 -7.06376e-14 0)
(4.16081e-15 -1.61108e-14 0)
(7.36108e-18 -3.34162e-17 0)
(1.86133e-18 -1.00175e-17 0)
(3.98062e-17 -2.58033e-16 0)
(6.26651e-16 -5.00506e-15 0)
(7.90049e-15 -8.04282e-14 0)
(7.59774e-14 -1.04047e-12 0)
(4.67745e-13 -9.48871e-12 0)
(2.5244e-12 -9.42082e-11 0)
(4.69216e-12 -8.85331e-10 0)
(-1.20715e-10 -7.83934e-09 0)
(-2.12407e-09 -5.98527e-08 0)
(-2.21771e-08 -4.02164e-07 0)
(-1.76729e-07 -2.37107e-06 0)
(-1.127e-06 -1.20115e-05 0)
(-6.03532e-06 -5.33222e-05 0)
(-2.90092e-05 -0.000218464 0)
(-0.000131525 -0.000860674 0)
(-0.00057207 -0.00329771 0)
(-0.00235023 -0.0120538 0)
(-0.00891073 -0.0409601 0)
(-0.0307475 -0.127372 0)
(-0.0968489 -0.363109 0)
(-0.280125 -0.953966 0)
(-0.750821 -2.33035 0)
(-1.88646 -5.35511 0)
(-4.48954 -11.7031 0)
(-10.123 -24.3465 0)
(-21.5202 -48.0221 0)
(-40.3673 -84.1377 0)
(-65.9372 -129.343 0)
(-95.5411 -177.823 0)
(-126.97 -226.096 0)
(-157.392 -270.338 0)
(-184.927 -308.74 0)
(-208.324 -340.447 0)
(-226.907 -365.275 0)
(-240.556 -383.603 0)
(-249.492 -396.01 0)
(-254.309 -403.456 0)
(-255.519 -406.652 0)
(-253.304 -405.695 0)
(-248.685 -402.018 0)
(-242.457 -396.749 0)
(-235.159 -390.625 0)
(-227.178 -384.17 0)
(-218.833 -377.825 0)
(-210.286 -371.815 0)
(-201.55 -366.125 0)
(-192.642 -360.75 0)
(-183.579 -355.688 0)
(-174.374 -350.935 0)
(-165.044 -346.488 0)
(-155.596 -342.344 0)
(-146.045 -338.504 0)
(-136.405 -334.968 0)
(-126.682 -331.735 0)
(-116.892 -328.807 0)
(-107.049 -326.187 0)
(-97.1677 -323.879 0)
(-87.2684 -321.89 0)
(-77.3623 -320.223 0)
(-67.4734 -318.889 0)
(-57.6249 -317.899 0)
(-47.8418 -317.261 0)
(-38.1582 -316.99 0)
(-28.6021 -317.099 0)
(-19.2164 -317.601 0)
(-10.0496 -318.514 0)
(-1.15712 -319.851 0)
(7.3926 -321.628 0)
(15.5267 -323.858 0)
(23.1509 -326.55 0)
(30.1576 -329.708 0)
(36.4209 -333.324 0)
(41.7938 -337.375 0)
(46.1136 -341.822 0)
(49.1916 -346.581 0)
(50.8243 -351.529 0)
(50.8024 -356.485 0)
(48.9263 -361.169 0)
(45.0406 -365.215 0)
(39.0898 -368.129 0)
(31.1962 -369.307 0)
(21.7427 -368.06 0)
(11.4767 -363.689 0)
(1.53008 -355.639 0)
(-6.56398 -343.667 0)
(0.300856 -0.314112 0)
(0.26471 -0.315954 0)
(0.146044 -0.199058 0)
(0.0261348 -0.04064 0)
(-4.87697e-06 8.6474e-06 0)
(-2.55603e-06 5.16758e-06 0)
(-3.18539e-07 7.34735e-07 0)
(-1.35186e-11 3.5626e-11 0)
(8.65712e-15 -2.61315e-14 0)
(1.87409e-15 -6.50503e-15 0)
(-2.53806e-18 1.01895e-17 0)
(-4.13047e-19 1.9339e-18 0)
(1.60575e-18 -8.86968e-18 0)
(2.60373e-17 -1.72432e-16 0)
(3.49371e-16 -2.83831e-15 0)
(3.06038e-15 -3.15545e-14 0)
(-2.73389e-14 3.7758e-13 0)
(-6.11128e-14 1.24481e-12 0)
(7.05237e-13 -2.62897e-11 0)
(1.98244e-12 -3.67571e-10 0)
(-4.87055e-11 -3.16415e-09 0)
(-8.37577e-10 -2.34553e-08 0)
(-8.41112e-09 -1.5094e-07 0)
(-6.18704e-08 -8.18355e-07 0)
(-3.65421e-07 -3.82605e-06 0)
(-1.90241e-06 -1.64555e-05 0)
(-9.33978e-06 -6.86349e-05 0)
(-4.46302e-05 -0.00028408 0)
(-0.000204855 -0.00114523 0)
(-0.000862445 -0.00427815 0)
(-0.00332149 -0.0147339 0)
(-0.0114837 -0.0458338 0)
(-0.0359667 -0.129819 0)
(-0.103441 -0.339183 0)
(-0.277956 -0.831605 0)
(-0.707729 -1.94052 0)
(-1.71287 -4.32373 0)
(-3.91768 -9.14749 0)
(-8.44239 -18.3255 0)
(-17.0949 -34.6834 0)
(-31.9102 -60.8779 0)
(-52.3372 -94.5045 0)
(-76.8529 -132.263 0)
(-103.078 -170.282 0)
(-129.435 -206.701 0)
(-153.938 -239.288 0)
(-175.249 -266.902 0)
(-192.605 -289.145 0)
(-205.685 -306.041 0)
(-214.73 -318.224 0)
(-220.167 -326.419 0)
(-222.473 -331.3 0)
(-222.184 -333.568 0)
(-219.775 -333.807 0)
(-215.644 -332.476 0)
(-210.104 -329.906 0)
(-203.478 -326.459 0)
(-196.095 -322.553 0)
(-188.155 -318.427 0)