/*--------------------------------*- C++ -*----------------------------------*\
  =========                 |
  \\      /  F ield         | OpenFOAM: The Open Source CFD Toolbox
   \\    /   O peration     | Website:  https://openfoam.org
    \\  /    A nd           | Version:  7
     \\/     M anipulation  |
\*---------------------------------------------------------------------------*/
FoamFile
{
    version     2.0;
    format      ascii;
    class       volVectorField;
    location    "0";
    object      Fc;
}
// * * * * * * * * * * * * * * * * * * * * * * * * * * * * * * * * * * * * * //

dimensions      [1 -2 -2 0 0 0 0];

internalField   nonuniform List<vector> 
58002
(
(0 0 0)
(0 0 0)
(0 0 0)
(0 0 0)
(0 0 0)
(0 0 0)
(0 0 0)
(0 0 0)
(0 0 0)
(0 0 0)
(0 0 0)
(0 0 0)
(-1.55208e-317 6.21759e-318 0)
(-7.73501e-314 3.2254e-314 0)
(5.14145e-309 -2.34539e-309 0)
(2.23163e-304 -1.15188e-304 0)
(4.6496e-300 -2.75571e-300 0)
(5.63821e-296 -3.8446e-296 0)
(4.20958e-292 -3.27687e-292 0)
(2.01787e-288 -1.77446e-288 0)
(6.4745e-285 -6.36352e-285 0)
(1.4521e-281 -1.57399e-281 0)
(2.38685e-278 -2.82754e-278 0)
(2.98151e-275 -3.82276e-275 0)
(2.96219e-272 -4.01036e-272 0)
(2.27076e-269 -3.28915e-269 0)
(1.4193e-266 -2.05665e-266 0)
(6.36837e-264 -9.76987e-264 0)
(2.22082e-261 -3.39575e-261 0)
(5.48936e-259 -8.67663e-259 0)
(7.69901e-257 -1.24534e-256 0)
(1.18939e-255 -1.96764e-255 0)
(-5.42882e-251 9.21215e-251 0)
(-8.42865e-250 1.46782e-249 0)
(4.59999e-245 -8.2203e-245 0)
(9.19238e-244 -1.68522e-243 0)
(-5.45796e-239 1.02639e-238 0)
(-8.29717e-238 1.60049e-237 0)
(2.25009e-233 -4.45307e-233 0)
(1.58202e-231 -3.21352e-231 0)
(2.82532e-227 -5.89357e-227 0)
(7.8216e-226 -1.67654e-225 0)
(-5.99928e-221 1.32239e-220 0)
(-1.34232e-219 3.04531e-219 0)
(8.13291e-215 -1.90096e-214 0)
(1.34954e-213 -3.25338e-213 0)
(-5.42026e-209 1.34935e-208 0)
(-1.11406e-207 2.86791e-207 0)
(-2.49298e-207 6.64628e-207 0)
(1.695e-205 -4.68796e-205 0)
(9.88224e-202 -2.84073e-201 0)
(8.11507e-198 -2.42967e-197 0)
(7.37277e-197 -2.30454e-196 0)
(-1.17413e-192 3.84175e-192 0)
(-5.31869e-191 1.8271e-190 0)
(-1.69092e-187 6.11923e-187 0)
(-1.49794e-186 5.73243e-186 0)
(2.2962e-182 -9.33317e-182 0)
(2.9303e-180 -1.27147e-179 0)
(1.89306e-177 -8.82158e-177 0)
(8.56473e-177 -4.31732e-176 0)
(-5.53958e-174 3.04758e-173 0)
(-4.25289e-173 2.58202e-172 0)
(1.12196e-168 -7.62426e-168 0)
(1.04368e-166 -8.08662e-166 0)
(4.5462e-164 -4.11762e-163 0)
(1.46522e-163 -1.607e-162 0)
(-1.04059e-158 1.45853e-157 0)
(-2.25235e-157 4.42866e-156 0)
(-3.77647e-157 1.27479e-155 0)
(-1.29831e-157 1.72475e-155 0)
(2.6121e-157 1.68111e-155 0)
(2.86701e-157 7.23188e-156 0)
(-3.50671e-158 -5.40859e-157 0)
(-4.65602e-157 -5.10655e-156 0)
(-1.25619e-156 -1.05731e-155 0)
(-2.09993e-156 -1.41932e-155 0)
(-2.63347e-156 -1.47256e-155 0)
(-1.97556e-156 -9.33467e-156 0)
(-6.66489e-157 -2.7038e-156 0)
(-9.80937e-158 -3.45828e-157 0)
(-8.07833e-159 -2.49741e-158 0)
(1.83746e-160 5.01402e-160 0)
(5.76656e-161 1.39584e-160 0)
(1.59467e-162 3.43763e-162 0)
(2.09989e-163 4.04353e-163 0)
(1.52065e-164 2.62003e-164 0)
(1.52109e-165 2.34599e-165 0)
(-6.53494e-167 -9.02374e-167 0)
(-7.13917e-167 -8.83217e-167 0)
(-5.55107e-167 -6.15591e-167 0)
(-2.43981e-167 -2.42842e-167 0)
(-1.09858e-168 -9.84426e-169 0)
(-8.92535e-170 -7.05128e-170 0)
(7.96268e-169 4.68841e-169 0)
(0 0 0)
(0 0 0)
(0 0 0)
(0 0 0)
(0 0 0)
(0 0 0)
(0 0 0)
(0 0 0)
(0 0 0)
(0 0 0)
(0 0 0)
(0 0 0)
(-2.92799e-317 1.17853e-317 0)
(-4.5243e-312 1.89773e-312 0)
(-4.02531e-307 1.84873e-307 0)
(-2.04762e-302 1.06477e-302 0)
(-6.0044e-298 3.58699e-298 0)
(-1.03567e-293 7.12187e-294 0)
(-1.08064e-289 8.48847e-290 0)
(-7.0614e-286 6.27051e-286 0)
(-3.02933e-282 3.00908e-282 0)
(-9.1013e-279 9.97918e-279 0)
(-2.06754e-275 2.47995e-275 0)
(-3.6882e-272 4.78786e-272 0)
(-5.1748e-269 7.11504e-269 0)
(-5.33408e-266 7.81045e-266 0)
(-4.16637e-263 6.18112e-263 0)
(-2.26363e-260 3.51926e-260 0)
(-8.95639e-258 1.40826e-257 0)
(-2.30978e-255 3.73584e-255 0)
(-2.71121e-253 4.49225e-253 0)
(-2.07797e-252 3.51981e-252 0)
(5.68115e-251 -9.86256e-251 0)
(1.57932e-246 -2.81259e-246 0)
(1.0185e-244 -1.86074e-244 0)
(1.37105e-243 -2.57035e-243 0)
(-5.7767e-239 1.11134e-238 0)
(-4.85895e-238 9.59335e-238 0)
(1.06107e-233 -2.15077e-233 0)
(5.70368e-232 -1.18752e-231 0)
(2.27491e-227 -4.86773e-227 0)
(5.8998e-226 -1.29829e-225 0)
(-4.34119e-221 9.83291e-221 0)
(-9.97942e-220 2.32879e-219 0)
(6.44665e-215 -1.55158e-214 0)
(1.09739e-213 -2.72724e-213 0)
(-4.89886e-209 1.25881e-208 0)
(-1.00682e-207 2.67894e-207 0)
(-2.22224e-207 6.13289e-207 0)
(4.72006e-205 -1.3536e-204 0)
(5.98223e-202 -1.78636e-201 0)
(7.99166e-198 -2.49065e-197 0)
(6.21121e-197 -2.0256e-196 0)
(-9.3459e-193 3.19878e-192 0)
(2.35738e-191 -8.4961e-191 0)
(-1.52327e-185 5.80269e-185 0)
(-3.6816e-183 1.4887e-182 0)
(-8.94604e-183 3.85877e-182 0)
(1.19432e-179 -5.52675e-179 0)
(3.60526e-177 -1.80212e-176 0)
(3.44633e-177 -1.87639e-176 0)
(-1.12172e-174 6.72234e-174 0)
(3.13471e-172 -2.09573e-171 0)
(8.31861e-169 -6.3144e-168 0)
(7.15726e-167 -6.31652e-166 0)
(3.75959e-164 -3.98771e-163 0)
(1.23751e-163 -1.65757e-162 0)
(-6.62441e-159 1.21665e-157 0)
(-1.47546e-157 4.39139e-156 0)
(-1.56754e-157 1.30744e-155 0)
(1.9196e-157 1.81989e-155 0)
(6.16219e-157 1.80381e-155 0)
(4.91094e-157 8.33396e-156 0)
(-3.05088e-159 -3.59587e-158 0)
(-5.60123e-157 -5.00405e-156 0)
(-1.55397e-156 -1.10721e-155 0)
(-2.38754e-156 -1.40118e-155 0)
(-2.92877e-156 -1.44709e-155 0)
(-2.18062e-156 -9.21853e-156 0)
(-7.36427e-157 -2.69764e-156 0)
(-1.07192e-157 -3.43624e-157 0)
(-8.85067e-159 -2.50078e-158 0)
(1.78086e-160 4.45663e-160 0)
(5.75287e-161 1.27932e-160 0)
(1.66457e-162 3.29722e-162 0)
(2.54592e-163 4.49867e-163 0)
(1.62569e-164 2.56254e-164 0)
(1.58955e-165 2.23021e-165 0)
(-6.78218e-167 -8.43794e-167 0)
(-7.44415e-167 -8.17857e-167 0)
(-5.85469e-167 -5.642e-167 0)
(-2.63447e-167 -2.19765e-167 0)
(-1.34748e-168 -9.52385e-169 0)
(-9.73653e-170 -5.4906e-170 0)
(4.65279e-169 1.64599e-169 0)
(0 0 0)
(0 0 0)
(0 0 0)
(0 0 0)
(0 0 0)
(0 0 0)
(0 0 0)
(0 0 0)
(0 0 0)
(0 0 0)
(0 0 0)
(0 0 0)
(3.45379e-316 -1.39803e-316 0)
(3.77339e-311 -1.59394e-311 0)
(2.28212e-306 -1.05666e-306 0)
(7.66567e-302 -4.02184e-302 0)
(1.46753e-297 -8.85085e-298 0)
(1.70225e-293 -1.18246e-293 0)
(1.33832e-289 -1.06264e-289 0)
(8.30874e-286 -7.46388e-286 0)
(4.41145e-282 -4.43673e-282 0)
(1.88302e-278 -2.09247e-278 0)
(5.97635e-275 -7.27265e-275 0)
(1.35917e-271 -1.79056e-271 0)
(2.24998e-268 -3.14807e-268 0)
(2.64615e-265 -3.93181e-265 0)
(2.28118e-262 -3.46679e-262 0)
(1.34056e-259 -2.12287e-259 0)
(5.54785e-257 -8.95922e-257 0)
(1.53132e-254 -2.53724e-254 0)
(2.17755e-252 -3.69389e-252 0)
(2.98287e-251 -5.17473e-251 0)
(-9.86332e-247 1.75308e-246 0)
(-2.98354e-242 5.43637e-242 0)
(-3.30192e-241 6.17247e-241 0)
(1.1432e-237 -2.19361e-237 0)
(1.51951e-234 -2.99292e-234 0)
(3.47332e-233 -7.02454e-233 0)
(-1.21812e-228 2.53096e-228 0)
(-1.40583e-226 3.0025e-226 0)
(-1.35805e-224 2.98316e-224 0)
(-8.04917e-223 1.81992e-222 0)
(-2.21732e-219 5.16514e-219 0)
(-3.58444e-216 8.61151e-216 0)
(-4.08899e-215 1.0143e-214 0)
(5.32391e-211 -1.36529e-210 0)
(4.70279e-209 -1.24858e-208 0)
(-6.12828e-208 1.68723e-207 0)
(-4.84322e-206 1.38523e-205 0)
(3.38028e-201 -1.0064e-200 0)
(5.80116e-200 -1.80193e-199 0)
(-2.80225e-195 9.10429e-195 0)
(-3.41054e-194 1.16234e-193 0)
(9.20553e-190 -3.30187e-189 0)
(5.63735e-189 -2.13598e-188 0)
(-1.25824e-184 5.0574e-184 0)
(-2.08943e-183 8.95184e-183 0)
(6.70322e-182 -3.07811e-181 0)
(1.1863e-177 -5.87655e-177 0)
(8.86751e-177 -4.77582e-176 0)
(-4.58979e-175 2.71378e-174 0)
(-1.48485e-174 9.75925e-174 0)
(4.9491e-172 -3.67576e-171 0)
(3.33359e-169 -2.86065e-168 0)
(2.64937e-167 -2.7097e-166 0)
(2.76701e-164 -3.53046e-163 0)
(9.11269e-164 -1.5609e-162 0)
(-1.61588e-159 4.27267e-158 0)
(-7.09081e-158 4.26164e-156 0)
(1.16343e-157 2.18655e-155 0)
(1.36535e-156 4.82665e-155 0)
(3.5954e-156 6.85466e-155 0)
(4.80797e-156 6.17418e-155 0)
(3.72904e-156 3.56874e-155 0)
(7.89137e-157 5.96531e-156 0)
(-1.65335e-156 -1.02406e-155 0)
(-3.81922e-156 -1.98516e-155 0)
(-4.3314e-156 -1.92066e-155 0)
(-2.71094e-156 -1.03851e-155 0)
(-8.97756e-157 -3.00215e-156 0)
(-1.4072e-157 -4.14155e-157 0)
(-1.35829e-158 -3.53779e-158 0)
(-2.19857e-160 -5.08465e-160 0)
(1.28256e-161 2.63907e-161 0)
(1.48447e-162 2.72027e-162 0)
(4.0631e-163 6.62973e-163 0)
(1.14093e-163 1.65517e-163 0)
(1.90794e-165 2.4504e-165 0)
(-6.75559e-167 -7.61864e-167 0)
(-7.4681e-167 -7.32157e-167 0)
(-6.04449e-167 -5.08065e-167 0)
(-2.96313e-167 -2.07638e-167 0)
(-2.49088e-168 -1.39083e-168 0)
(-8.18971e-170 -3.29712e-170 0)
(1.37424e-169 2.82037e-170 0)
(0 0 0)
(0 0 0)
(0 0 0)
(0 0 0)
(0 0 0)
(0 0 0)
(0 0 0)
(0 0 0)
(0 0 0)
(0 0 0)
(0 0 0)
(0 0 0)
(8.40751e-316 -3.42237e-316 0)
(1.08828e-310 -4.62937e-311 0)
(8.00182e-306 -3.73496e-306 0)
(3.37629e-301 -1.78714e-301 0)
(8.38315e-297 -5.10409e-297 0)
(1.2728e-292 -8.93087e-293 0)
(1.23781e-288 -9.93462e-289 0)
(8.06097e-285 -7.32547e-285 0)
(3.64205e-281 -3.70885e-281 0)
(1.25859e-277 -1.41758e-277 0)
(3.35192e-274 -4.13889e-274 0)
(6.64318e-271 -8.88472e-271 0)
(9.74187e-268 -1.38708e-267 0)
(1.01591e-264 -1.53347e-264 0)
(7.65387e-262 -1.18956e-261 0)
(3.88438e-259 -6.26927e-259 0)
(1.33336e-256 -2.20532e-256 0)
(2.89218e-254 -4.90615e-254 0)
(2.94044e-252 -5.11086e-252 0)
(2.51364e-251 -4.47001e-251 0)
(-5.34421e-247 9.72921e-247 0)
(-3.71174e-242 6.92574e-242 0)
(-1.67781e-239 3.21306e-239 0)
(-3.17455e-239 6.24104e-239 0)
(4.91764e-234 -9.92646e-234 0)
(1.03168e-232 -2.13955e-232 0)
(-6.02791e-228 1.28523e-227 0)
(-9.65791e-227 2.11817e-226 0)
(1.78967e-222 -4.04008e-222 0)
(9.87498e-222 -2.29659e-221 0)
(-2.42973e-218 5.82763e-218 0)
(-7.21083e-217 1.78563e-216 0)
(4.46718e-214 -1.14348e-213 0)
(7.56602e-211 -2.00468e-210 0)
(1.36489e-209 -3.74922e-209 0)
(-6.10796e-206 1.7425e-205 0)
(-7.18069e-205 2.13171e-204 0)
(2.36997e-200 -7.33735e-200 0)
(2.43621e-199 -7.88528e-199 0)
(-7.6881e-195 2.60886e-194 0)
(-7.60568e-194 2.71455e-193 0)
(2.08355e-189 -7.85023e-189 0)
(1.36777e-188 -5.46281e-188 0)
(-2.39399e-184 1.01836e-183 0)
(-1.90904e-183 8.69583e-183 0)
(8.16928e-182 -4.00964e-181 0)
(1.88705e-177 -1.00538e-176 0)
(1.08107e-176 -6.30865e-176 0)
(-3.83024e-175 2.47632e-174 0)
(-2.3042e-172 1.6754e-171 0)
(-6.85019e-171 5.71706e-170 0)
(6.67019e-170 -6.57498e-169 0)
(3.70837e-168 -4.50213e-167 0)
(1.23425e-164 -1.97113e-163 0)
(1.49572e-163 -3.53865e-162 0)
(-2.13234e-161 9.97298e-160 0)
(3.06964e-160 3.05126e-156 0)
(2.391e-156 1.06806e-154 0)
(2.07578e-155 4.53509e-154 0)
(7.89505e-155 1.12015e-153 0)
(1.52517e-154 1.57972e-153 0)
(1.85326e-154 1.49652e-153 0)
(1.31901e-154 8.66099e-154 0)
(4.06284e-155 2.23032e-154 0)
(1.23844e-156 5.78748e-156 0)
(-8.34664e-156 -3.36213e-155 0)
(-1.03488e-155 -3.62939e-155 0)
(-4.6379e-156 -1.42865e-155 0)
(-6.92066e-157 -1.88516e-156 0)
(-5.15216e-158 -1.24601e-157 0)
(-4.37193e-159 -9.4061e-159 0)
(-2.97554e-160 -5.70148e-160 0)
(-1.11168e-161 -1.89653e-161 0)
(2.36204e-163 3.57997e-163 0)
(1.19383e-163 1.60259e-163 0)
(2.52535e-164 2.98632e-164 0)
(-2.86472e-166 -2.94818e-166 0)
(-1.88906e-166 -1.66298e-166 0)
(-7.40272e-167 -5.4553e-167 0)
(-2.22448e-167 -1.31171e-167 0)
(-4.95179e-169 -2.16549e-169 0)
(-5.67264e-170 -1.54374e-170 0)
(1.99968e-169 1.90544e-170 0)
(0 0 0)
(0 0 0)
(0 0 0)
(0 0 0)
(0 0 0)
(0 0 0)
(0 0 0)
(0 0 0)
(0 0 0)
(0 0 0)
(0 0 0)
(0 0 0)
(-6.33802e-316 2.59443e-316 0)
(-1.12993e-310 4.84011e-311 0)
(-1.17051e-305 5.50748e-306 0)
(-7.32051e-301 3.90917e-301 0)
(-3.04403e-296 1.87092e-296 0)
(-1.00423e-291 7.11746e-292 0)
(-3.66063e-288 2.9697e-288 0)
(1.02772e-284 -9.44804e-285 0)
(2.02457e-280 -2.08759e-280 0)
(1.30694e-276 -1.49212e-276 0)
(5.08897e-273 -6.37624e-273 0)
(1.32246e-269 -1.79571e-269 0)
(2.40777e-266 -3.48704e-266 0)
(3.0104e-263 -4.61548e-263 0)
(2.61409e-260 -4.14428e-260 0)
(1.46182e-257 -2.40084e-257 0)
(5.08831e-255 -8.59101e-255 0)
(9.54192e-253 -1.65423e-252 0)
(9.65619e-252 -1.71726e-251 0)
(-1.08648e-248 1.97555e-248 0)
(-9.96712e-246 1.85424e-245 0)
(-1.74851e-241 3.33591e-241 0)
(-5.39235e-240 1.05617e-239 0)
(4.20127e-236 -8.4468e-236 0)
(1.09247e-234 -2.25602e-234 0)
(-7.76235e-232 1.64809e-231 0)
(-5.3296e-228 1.16418e-227 0)
(-8.71983e-227 1.96056e-226 0)
(3.13106e-222 -7.25172e-222 0)
(2.04017e-221 -4.87254e-221 0)
(-6.85946e-219 1.6913e-218 0)
(-5.53946e-218 1.41171e-217 0)
(1.00424e-213 -2.64857e-213 0)
(5.22226e-210 -1.42749e-209 0)
(3.03219e-208 -8.60526e-208 0)
(2.91993e-205 -8.62008e-205 0)
(1.56761e-204 -4.82423e-204 0)
(-1.25743e-200 4.04349e-200 0)
(-1.14158e-196 3.84623e-196 0)
(-1.07285e-194 3.79908e-194 0)
(-2.28692e-193 8.54193e-193 0)
(1.34392e-188 -5.31644e-188 0)
(1.46969e-187 -6.18649e-187 0)
(-8.7346e-185 3.93317e-184 0)
(-3.29491e-182 1.59686e-181 0)
(-1.14559e-181 6.01804e-181 0)
(8.67547e-178 -4.98185e-177 0)
(5.33692e-176 -3.38543e-175 0)
(1.43339e-175 -1.01813e-174 0)
(-5.33778e-173 4.32379e-172 0)
(-8.95659e-171 8.48954e-170 0)
(-5.78025e-169 6.65705e-168 0)
(-1.66279e-168 2.46742e-167 0)
(1.50882e-165 -3.19394e-164 0)
(3.25831e-163 -1.22959e-161 0)
(2.82933e-163 -5.38585e-161 0)
(1.60605e-158 9.69616e-157 0)
(5.50546e-156 1.40377e-154 0)
(2.42561e-154 3.8452e-153 0)
(1.268e-153 1.43426e-152 0)
(3.67558e-153 3.19103e-152 0)
(5.82119e-153 4.06511e-152 0)
(6.23302e-153 3.61625e-152 0)
(3.86643e-153 1.90458e-152 0)
(9.59043e-154 4.06696e-153 0)
(1.15875e-154 4.2704e-154 0)
(-2.60019e-156 -8.39595e-156 0)
(-1.63266e-155 -4.65437e-155 0)
(-9.9364e-156 -2.5149e-155 0)
(-4.77789e-156 -1.07632e-155 0)
(-2.04033e-156 -4.09418e-156 0)
(-4.54894e-157 -8.13586e-157 0)
(-2.92172e-158 -4.65205e-158 0)
(-1.74739e-161 -2.4657e-161 0)
(-1.19932e-163 -1.49193e-163 0)
(1.85326e-164 2.02046e-164 0)
(1.14859e-164 1.08123e-164 0)
(5.22139e-165 4.13932e-165 0)
(2.62842e-166 1.70173e-166 0)
(-4.38656e-167 -2.17458e-167 0)
(-1.65341e-168 -5.51201e-169 0)
(2.0705e-168 3.20998e-169 0)
(-2.9316e-155 5.56824e-157 0)
(0 0 0)
(0 0 0)
(0 0 0)
(0 0 0)
(0 0 0)
(0 0 0)
(0 0 0)
(0 0 0)
(0 0 0)
(0 0 0)
(0 0 0)
(0 0 0)
(3.22209e-314 -1.32631e-314 0)
(5.59223e-309 -2.41211e-309 0)
(5.53121e-304 -2.62336e-304 0)
(3.13638e-299 -1.68956e-299 0)
(1.03839e-294 -6.44229e-295 0)
(2.06483e-290 -1.47813e-290 0)
(2.54894e-286 -2.09007e-286 0)
(2.0153e-282 -1.87421e-282 0)
(1.05173e-278 -1.09808e-278 0)
(3.70827e-275 -4.29136e-275 0)
(9.06761e-272 -1.15273e-271 0)
(1.55558e-268 -2.14418e-268 0)
(1.93319e-265 -2.84585e-265 0)
(1.73582e-262 -2.70226e-262 0)
(1.17293e-259 -1.89429e-259 0)
(5.74845e-257 -9.61399e-257 0)
(2.07077e-254 -3.57349e-254 0)
(4.07494e-252 -7.23477e-252 0)
(6.17538e-251 -1.12451e-250 0)
(1.66828e-249 -3.10215e-249 0)
(-6.11143e-244 1.16346e-243 0)
(-2.8103e-242 5.49137e-242 0)
(3.48256e-238 -6.98465e-238 0)
(9.56132e-237 -1.96828e-236 0)
(-1.7936e-233 3.79482e-233 0)
(-5.87216e-232 1.27837e-231 0)
(-2.45553e-228 5.50306e-228 0)
(-4.82386e-227 1.11345e-226 0)
(2.05168e-222 -4.88233e-222 0)
(1.38837e-221 -3.41036e-221 0)
(-1.36953e-218 3.47678e-218 0)
(-8.23032e-218 2.16199e-217 0)
(7.71618e-214 -2.1002e-213 0)
(4.76901e-210 -1.34714e-209 0)
(5.14658e-208 -1.51167e-207 0)
(9.44246e-204 -2.88995e-203 0)
(1.19819e-202 -3.82993e-202 0)
(-3.11084e-198 1.04117e-197 0)
(-8.20043e-197 2.88237e-196 0)
(-6.82953e-195 2.52972e-194 0)
(-1.84621e-193 7.23541e-193 0)
(1.08847e-188 -4.53411e-188 0)
(1.0101e-187 -4.49588e-187 0)
(-8.06344e-186 3.85788e-185 0)
(-5.51408e-182 2.85552e-181 0)
(-1.0035e-180 5.67063e-180 0)
(7.38097e-179 -4.59595e-178 0)
(3.36699e-176 -2.33885e-175 0)
(1.99157e-174 -1.56867e-173 0)
(4.6578e-174 -4.25536e-173 0)
(-4.11209e-171 4.5042e-170 0)
(-2.8462e-168 3.93413e-167 0)
(-1.45182e-167 2.76167e-166 0)
(-3.86072e-167 1.20459e-165 0)
(6.4179e-163 -5.86215e-161 0)
(-7.96839e-162 -7.50458e-160 0)
(2.83979e-159 8.67679e-158 0)
(5.36969e-156 9.63766e-155 0)
(1.17497e-153 1.46823e-152 0)
(2.14149e-152 2.02138e-151 0)
(5.11517e-152 3.83469e-151 0)
(1.12908e-151 6.96655e-151 0)
(1.57607e-151 8.21408e-151 0)
(1.68379e-151 7.54248e-151 0)
(1.42565e-150 5.54728e-150 0)
(1.95622e-150 6.65929e-150 0)
(1.62201e-150 4.86346e-150 0)
(1.20583e-150 3.20629e-150 0)
(6.27969e-151 1.48756e-150 0)
(1.41288e-151 2.98488e-151 0)
(1.29405e-154 2.43716e-154 0)
(8.50992e-156 1.42931e-155 0)
(3.78886e-157 5.66705e-157 0)
(-4.17227e-157 -5.51979e-157 0)
(-2.55483e-157 -2.96445e-157 0)
(-2.57578e-158 -2.60361e-158 0)
(-7.01729e-162 -6.08116e-162 0)
(-1.94698e-163 -1.40027e-163 0)
(3.28474e-164 1.87845e-164 0)
(3.30928e-164 1.38439e-164 0)
(4.75517e-164 1.16713e-164 0)
(-2.38981e-158 -1.02458e-159 0)
(-3.79713e-154 7.24273e-155 0)
(-1.6801e-82 -8.82889e-83 0)
(5.37819e-67 3.4504e-67 0)
(3.96169e-53 2.61492e-53 0)
(4.02754e-44 2.46394e-44 0)
(4.09679e-38 2.23918e-38 0)
(8.24566e-34 3.90217e-34 0)
(2.07901e-30 8.21226e-31 0)
(1.38936e-27 4.3776e-28 0)
(4.09843e-25 9.70587e-26 0)
(7.13206e-23 1.1432e-23 0)
(8.91413e-21 7.38307e-22 0)
(9.41606e-19 2.47723e-21 0)
(9.13428e-17 -7.38451e-18 0)
(8.24645e-15 -1.39233e-15 0)
(6.46182e-13 -1.70581e-13 0)
(4.07969e-11 -1.50731e-11 0)
(1.91384e-09 -9.34736e-10 0)
(6.44194e-08 -4.02115e-08 0)
(1.52339e-06 -1.18929e-06 0)
(-5.41096e-84 -1.55068e-84 0)
(4.54911e-67 2.32944e-67 0)
(3.45821e-53 2.01602e-53 0)
(3.83746e-44 2.18017e-44 0)
(4.12304e-38 2.10577e-38 0)
(8.67619e-34 3.86486e-34 0)
(2.38823e-30 8.94718e-31 0)
(1.91589e-27 5.71767e-28 0)
(7.17765e-25 1.59506e-25 0)
(1.6614e-22 2.44415e-23 0)
(2.82718e-20 1.99414e-21 0)
(3.60931e-18 -3.15386e-20 0)
(3.79056e-16 -3.44337e-17 0)
(3.29092e-14 -5.83075e-15 0)
(2.31835e-12 -6.26947e-13 0)
(1.25239e-10 -4.67445e-11 0)
(4.96977e-09 -2.42472e-09 0)
(1.41311e-07 -8.71872e-08 0)
(2.84408e-06 -2.17232e-06 0)
(1.9334e-83 4.31685e-84 0)
(3.64079e-67 1.61614e-67 0)
(2.20213e-53 1.15173e-53 0)
(3.28882e-44 1.75341e-44 0)
(4.41384e-38 2.15528e-38 0)
(1.10803e-33 4.68209e-34 0)
(3.60578e-30 1.27413e-30 0)
(3.75263e-27 1.06012e-27 0)
(1.65771e-24 3.47457e-25 0)
(4.16123e-22 5.61812e-23 0)
(7.34836e-20 4.31647e-21 0)
(9.50081e-18 -1.82643e-19 0)
(1.00162e-15 -9.97219e-17 0)
(8.24807e-14 -1.51993e-14 0)
(5.35061e-12 -1.47574e-12 0)
(2.58279e-10 -9.7114e-11 0)
(9.11766e-09 -4.43514e-09 0)
(2.29881e-07 -1.40066e-07 0)
(4.1398e-06 -3.09506e-06 0)
(9.6765e-83 2.1756e-83 0)
(3.28338e-67 1.40604e-67 0)
(1.84406e-53 9.17888e-54 0)
(3.0856e-44 1.56088e-44 0)
(5.12645e-38 2.40629e-38 0)
(1.64936e-33 6.68099e-34 0)
(5.97059e-30 2.0058e-30 0)
(7.38351e-27 1.98095e-27 0)
(3.67582e-24 7.26797e-25 0)
(1.01306e-21 1.25124e-22 0)
(1.89424e-19 9.0719e-21 0)
(2.56713e-17 -7.29755e-19 0)
(2.61927e-15 -2.80411e-16 0)
(2.05321e-13 -3.90969e-14 0)
(1.21843e-11 -3.41559e-12 0)
(5.29362e-10 -2.00011e-10 0)
(1.67324e-08 -8.10045e-09 0)
(3.77014e-07 -2.26693e-07 0)
(6.11429e-06 -4.47703e-06 0)
(-1.09035e-71 -3.056e-72 0)
(3.00836e-67 1.35349e-67 0)
(1.99016e-53 9.9467e-54 0)
(3.28336e-44 1.60301e-44 0)
(6.71396e-38 3.01589e-38 0)
(2.77553e-33 1.07971e-33 0)
(1.0894e-29 3.50374e-30 0)
(1.51062e-26 3.84485e-27 0)
(8.39283e-24 1.54957e-24 0)
(2.55713e-21 2.84753e-22 0)
(4.96379e-19 1.85019e-20 0)
(6.95014e-17 -2.58736e-18 0)
(6.71969e-15 -7.6871e-16 0)
(4.99759e-13 -9.82172e-14 0)
(2.68754e-11 -7.65084e-12 0)
(1.05998e-09 -4.02074e-10 0)
(3.00709e-08 -1.44806e-08 0)
(6.08892e-07 -3.61397e-07 0)
(8.90615e-06 -6.39451e-06 0)
(-1.24906e-71 -5.27019e-72 0)
(3.01225e-67 1.54211e-67 0)
(2.39061e-53 1.24152e-53 0)
(4.1438e-44 2.00312e-44 0)
(1.03338e-37 4.49157e-38 0)
(5.37087e-33 2.02148e-33 0)
(2.27981e-29 7.08089e-30 0)
(3.33444e-26 8.08572e-27 0)
(2.01148e-23 3.4665e-24 0)
(6.72095e-21 6.74928e-22 0)
(1.33696e-18 3.77801e-20 0)
(1.83998e-16 -8.22611e-18 0)
(1.70468e-14 -2.06001e-15 0)
(1.18196e-12 -2.38595e-13 0)
(5.77824e-11 -1.66485e-11 0)
(2.08579e-09 -7.92277e-10 0)
(5.31809e-08 -2.54342e-08 0)
(9.70253e-07 -5.68204e-07 0)
(1.28026e-05 -9.01828e-06 0)
(2.30985e-05 -2.21763e-05 0)
(0.000247782 -0.000289026 0)
(0.00191755 -0.00269707 0)
(0.00720331 -0.0121501 0)
(0.00895089 -0.0180449 0)
(0.00615487 -0.0148155 0)
(0.0018155 -0.00522683 0)
(4.32236e-05 -0.000149535 0)
(-2.00575e-08 8.4061e-08 0)
(-5.09812e-09 2.6204e-08 0)
(-2.88826e-11 1.85418e-10 0)
(8.18827e-15 -6.74846e-14 0)
(2.39613e-13 -2.64781e-12 0)
(2.18092e-12 -3.48202e-11 0)
(1.37017e-11 -3.67746e-10 0)
(4.24297e-11 -3.03588e-09 0)
(-1.50542e-10 -1.9989e-08 0)
(-3.07272e-09 -1.1163e-07 0)
(-2.55615e-08 -5.52897e-07 0)
(-1.56458e-07 -2.45044e-06 0)
(-7.92618e-07 -9.83916e-06 0)
(-3.48306e-06 -3.60864e-05 0)
(-1.35547e-05 -0.00012115 0)
(-4.73628e-05 -0.000373572 0)
(-0.000152131 -0.00107635 0)
(-0.000456781 -0.00293435 0)
(-0.00129571 -0.0076275 0)
(-0.00349453 -0.0189853 0)
(-0.00900119 -0.0453797 0)
(-0.0222165 -0.104376 0)
(-0.0526429 -0.23121 0)
(-0.119884 -0.493351 0)
(-0.262906 -1.01521 0)
(-0.557413 -2.02111 0)
(-1.14703 -3.90507 0)
(-2.29207 -7.32189 0)
(-4.43094 -13.2648 0)
(-8.23078 -23.0588 0)
(-14.5667 -38.1488 0)
(-24.3167 -59.5356 0)
(-37.8938 -86.9122 0)
(-54.7357 -118.152 0)
(-72.5468 -148.429 0)
(-89.4862 -174.968 0)
(-104.686 -197.307 0)
(-117.232 -214.839 0)
(-126.712 -227.653 0)
(-133.151 -236.298 0)
(-136.854 -241.533 0)
(-138.232 -244.093 0)
(-137.718 -244.625 0)
(-135.713 -243.658 0)
(-132.605 -241.668 0)
(-128.994 -239.54 0)
(-125.093 -237.557 0)
(-120.944 -235.715 0)
(-116.586 -234.017 0)
(-112.039 -232.454 0)
(-107.326 -231.035 0)
(-102.466 -229.757 0)
(-97.4731 -228.619 0)
(-92.3663 -227.627 0)
(-87.1549 -226.78 0)
(-81.8517 -226.079 0)
(-76.4716 -225.532 0)
(-71.0221 -225.139 0)
(-65.5163 -224.908 0)
(-59.965 -224.841 0)
(-54.381 -224.946 0)
(-48.7787 -225.231 0)
(-43.1686 -225.708 0)
(-37.5672 -226.382 0)
(-31.9917 -227.266 0)
(-26.4613 -228.375 0)
(-20.9995 -229.721 0)
(-15.628 -231.323 0)
(-10.3784 -233.198 0)
(-5.28647 -235.367 0)
(-0.393948 -237.852 0)
(4.24686 -240.675 0)
(8.57852 -243.864 0)
(12.5262 -247.443 0)
(16.0005 -251.438 0)
(18.8936 -255.868 0)
(21.0733 -260.75 0)
(22.3814 -266.086 0)
(22.6262 -271.863 0)
(21.5784 -278.021 0)
(18.9713 -284.47 0)
(14.5066 -291.026 0)
(7.86788 -297.395 0)
(-1.23176 -303.133 0)
(-12.9691 -307.576 0)
(-27.2876 -309.859 0)
(-43.7023 -308.93 0)
(-61.1564 -303.74 0)
(-77.9607 -293.534 0)
(3.74254e-05 -3.48116e-05 0)
(0.000353125 -0.000395328 0)
(0.00242204 -0.00323893 0)
(0.00685739 -0.010891 0)
(0.00681264 -0.0128011 0)
(0.00425476 -0.00944324 0)
(0.00100104 -0.00262624 0)
(3.48194e-06 -1.08324e-05 0)
(-1.75055e-08 6.49454e-08 0)
(-3.78162e-09 1.68746e-08 0)
(-5.02039e-12 2.72828e-11 0)
(2.01516e-14 -1.35843e-13 0)
(1.11682e-15 -9.60109e-15 0)
(-7.40354e-20 8.47931e-19 0)
(2.24711e-21 -3.69446e-20 0)
(-7.94778e-20 2.17938e-18 0)
(-1.91233e-17 1.37203e-15 0)
(1.20987e-16 1.7232e-14 0)
(4.73548e-16 1.7782e-14 0)
(-1.79481e-14 -3.98018e-13 0)
(-3.29054e-13 -5.25674e-12 0)
(-4.61115e-12 -5.81403e-11 0)
(-5.19502e-11 -5.44606e-10 0)
(-4.71054e-10 -4.24471e-09 0)
(-3.55633e-09 -2.81828e-08 0)
(-2.37841e-08 -1.68504e-07 0)
(-1.47677e-07 -9.46843e-07 0)
(-8.65481e-07 -5.06853e-06 0)
(-4.73957e-06 -2.55332e-05 0)
(-2.36752e-05 -0.000117969 0)
(-0.000108485 -0.000502059 0)
(-0.000452224 -0.00194971 0)
(-0.00170357 -0.00685668 0)
(-0.00593969 -0.0223451 0)
(-0.0196668 -0.0691814 0)
(-0.0622474 -0.204671 0)
(-0.187043 -0.574265 0)
(-0.529119 -1.51466 0)
(-1.39811 -3.72579 0)
(-3.40514 -8.43868 0)
(-7.50265 -17.2962 0)
(-14.876 -31.9804 0)
(-26.9442 -54.3061 0)
(-42.604 -81.1348 0)
(-59.6867 -108.376 0)
(-76.5918 -133.876 0)
(-91.8646 -156.06 0)
(-104.59 -174.25 0)
(-114.391 -188.44 0)
(-121.315 -199.054 0)
(-125.636 -206.655 0)
(-127.732 -211.826 0)
(-127.962 -215.035 0)
(-126.424 -216.231 0)
(-123.584 -215.986 0)
(-119.902 -214.919 0)
(-115.71 -213.489 0)
(-111.238 -212.024 0)
(-106.603 -210.692 0)
(-101.817 -209.489 0)
(-96.9025 -208.423 0)
(-91.875 -207.496 0)
(-86.743 -206.704 0)
(-81.5232 -206.059 0)
(-76.2236 -205.548 0)
(-70.8585 -205.191 0)
(-65.4397 -204.989 0)
(-59.9793 -204.947 0)
(-54.4889 -205.067 0)
(-48.9842 -205.358 0)
(-43.4767 -205.833 0)
(-37.9832 -206.496 0)
(-32.522 -207.359 0)
(-27.1131 -208.439 0)
(-21.7804 -209.74 0)
(-16.547 -211.282 0)
(-11.445 -213.08 0)
(-6.51125 -215.151 0)
(-1.788 -217.512 0)
(2.67206 -220.182 0)
(6.8111 -223.182 0)
(10.5548 -226.528 0)
(13.8154 -230.237 0)
(16.488 -234.317 0)
(18.446 -238.769 0)
(19.5409 -243.587 0)
(19.5956 -248.734 0)
(18.4049 -254.147 0)
(15.7359 -259.716 0)
(11.3368 -265.192 0)
(4.95804 -270.083 0)
(-3.57531 -273.755 0)
(-14.273 -275.458 0)
(-26.8881 -274.519 0)
(-40.8131 -270.361 0)
(-54.9853 -262.246 0)
(-67.8998 -249.841 0)
(4.95206e-05 -4.47152e-05 0)
(0.000431005 -0.000464655 0)
(0.00266267 -0.00340103 0)
(0.00623736 -0.00938267 0)
(0.00594172 -0.0104825 0)
(0.00355087 -0.00733234 0)
(0.000742892 -0.0017958 0)
(-5.46874e-08 1.55084e-07 0)
(-2.67293e-08 8.92746e-08 0)
(-3.54559e-09 1.40308e-08 0)
(4.25801e-13 -2.01403e-12 0)
(7.83837e-14 -4.4891e-13 0)
(1.2582e-15 -8.89315e-15 0)
(-2.70612e-19 2.42942e-18 0)
(-1.10286e-20 1.31536e-19 0)
(-1.58863e-19 2.71704e-18 0)
(-3.71366e-18 1.06208e-16 0)
(-3.2583e-17 2.4894e-15 0)
(1.68016e-16 2.27628e-14 0)
(-8.40772e-16 -3.15494e-14 0)
(-2.01909e-14 -4.49582e-13 0)
(-3.23032e-13 -5.18158e-12 0)
(-4.00446e-12 -5.06215e-11 0)
(-3.89865e-11 -4.08904e-10 0)
(-3.11076e-10 -2.79781e-09 0)
(-2.18473e-09 -1.72365e-08 0)
(-1.42686e-08 -1.00375e-07 0)
(-8.87312e-08 -5.63351e-07 0)
(-5.21856e-07 -3.01786e-06 0)
(-2.78568e-06 -1.47766e-05 0)
(-1.3606e-05 -6.6558e-05 0)
(-6.02791e-05 -0.000273026 0)
(-0.000239607 -0.00100777 0)
(-0.000873571 -0.00341832 0)
(-0.00303856 -0.0110736 0)
(-0.0102537 -0.0348117 0)
(-0.0331205 -0.104713 0)
(-0.101616 -0.298912 0)
(-0.296188 -0.809755 0)
(-0.820636 -2.08316 0)
(-2.14881 -5.06315 0)
(-5.03442 -11.0208 0)
(-10.4221 -21.2537 0)
(-19.2187 -36.6923 0)
(-31.212 -56.1838 0)
(-45.4374 -77.7786 0)
(-60.5089 -99.4361 0)
(-74.9909 -119.46 0)
(-87.7785 -136.831 0)
(-98.2406 -151.169 0)
(-106.156 -162.529 0)
(-111.614 -171.234 0)
(-114.884 -177.724 0)
(-116.272 -182.387 0)
(-116.079 -185.544 0)
(-114.603 -187.5 0)
(-112.136 -188.565 0)
(-108.862 -188.9 0)
(-104.979 -188.716 0)
(-100.672 -188.244 0)
(-96.0678 -187.642 0)
(-91.2452 -187.001 0)
(-86.2638 -186.398 0)
(-81.1619 -185.876 0)
(-75.9631 -185.449 0)
(-70.6924 -185.152 0)
(-65.3642 -184.992 0)
(-59.9945 -184.98 0)
(-54.5965 -185.12 0)
(-49.1872 -185.421 0)
(-43.7789 -185.895 0)
(-38.3891 -186.546 0)
(-33.0369 -187.387 0)
(-27.7427 -188.43 0)
(-22.5317 -189.682 0)
(-17.4274 -191.16 0)
(-12.4624 -192.874 0)
(-7.67429 -194.837 0)
(-3.10569 -197.063 0)
(1.19084 -199.564 0)
(5.15727 -202.352 0)
(8.72039 -205.433 0)
(11.7939 -208.808 0)
(14.2758 -212.461 0)
(16.0437 -216.354 0)
(16.9565 -220.424 0)
(16.849 -224.539 0)
(15.5379 -228.501 0)
(12.8299 -231.997 0)
(8.55231 -234.654 0)
(2.5864 -236.077 0)
(-5.08013 -235.712 0)
(-14.2819 -233.179 0)
(-24.6336 -228.118 0)
(-35.4596 -220.136 0)
(-45.7157 -208.549 0)
(-54.0193 -192.955 0)
(6.66875e-05 -5.85591e-05 0)
(0.000537419 -0.000559511 0)
(0.002882 -0.00352955 0)
(0.00553618 -0.00792597 0)
(0.00478593 -0.00797535 0)
(0.00257247 -0.00497882 0)
(0.000409948 -0.000921293 0)
(-7.07623e-08 1.84904e-07 0)
(-3.47337e-08 1.05811e-07 0)
(-2.89587e-09 1.03275e-08 0)
(5.90822e-13 -2.4822e-12 0)
(1.09868e-13 -5.48911e-13 0)
(3.77985e-17 -2.27717e-16 0)
(-4.77774e-19 3.54229e-18 0)
(-1.59563e-20 1.50062e-19 0)
(-2.38337e-20 2.97975e-19 0)
(-3.71211e-19 6.68168e-18 0)
(-4.64559e-18 1.41606e-16 0)
(-3.33159e-17 2.89241e-15 0)
(-1.10223e-17 -1.29418e-15 0)
(-6.69976e-16 -2.43624e-14 0)
(-1.36905e-14 -3.00116e-13 0)
(-1.97903e-13 -3.13964e-12 0)
(-2.1434e-12 -2.68274e-11 0)
(-1.85062e-11 -1.92099e-10 0)
(-1.38959e-10 -1.23544e-09 0)
(-9.70225e-10 -7.55419e-09 0)
(-6.52116e-09 -4.51842e-08 0)
(-4.23262e-08 -2.64116e-07 0)
(-2.46433e-07 -1.39741e-06 0)
(-1.30522e-06 -6.77233e-06 0)
(-6.23715e-06 -2.97665e-05 0)
(-2.6465e-05 -0.000116621 0)
(-0.000101625 -0.000414628 0)
(-0.000370258 -0.00140116 0)
(-0.00132176 -0.00464401 0)
(-0.00459599 -0.0149976 0)
(-0.0150491 -0.0456032 0)
(-0.0459796 -0.129337 0)
(-0.131065 -0.342097 0)
(-0.349008 -0.845248 0)
(-0.8721 -1.96095 0)
(-2.05587 -4.29862 0)
(-4.58373 -8.93698 0)
(-9.64977 -17.6188 0)
(-17.8742 -30.7416 0)
(-28.8999 -47.1686 0)
(-41.6064 -64.994 0)
(-54.9292 -82.8785 0)
(-67.6015 -99.4338 0)
(-78.7955 -114 0)
(-87.9605 -126.234 0)
(-94.9221 -136.169 0)
(-99.7153 -143.99 0)
(-102.514 -149.948 0)
(-103.579 -154.337 0)
(-103.203 -157.455 0)
(-101.678 -159.606 0)
(-99.2545 -161.032 0)
(-96.1321 -161.93 0)
(-92.472 -162.459 0)
(-88.4018 -162.744 0)
(-84.0091 -162.871 0)
(-79.3739 -162.923 0)
(-74.5554 -162.958 0)
(-69.5908 -163.01 0)
(-64.5178 -163.115 0)
(-59.3687 -163.307 0)
(-54.1681 -163.604 0)
(-48.9389 -164.022 0)
(-43.699 -164.577 0)
(-38.4695 -165.275 0)
(-33.2723 -166.128 0)
(-28.1314 -167.149 0)
(-23.0739 -168.343 0)
(-18.1258 -169.725 0)
(-13.3209 -171.294 0)
(-8.69959 -173.061 0)
(-4.30581 -175.034 0)
(-0.192857 -177.212 0)
(3.58038 -179.587 0)
(6.94118 -182.155 0)
(9.80432 -184.876 0)
(12.0707 -187.699 0)
(13.6254 -190.546 0)
(14.3397 -193.296 0)
(14.0738 -195.787 0)
(12.6846 -197.784 0)
(10.0407 -198.982 0)
(6.05296 -198.975 0)
(0.711892 -197.248 0)
(-5.84915 -193.36 0)
(-13.317 -187.143 0)
(-21.1916 -178.426 0)
(-28.7491 -166.937 0)
(-35.0096 -152.184 0)
(-38.7593 -133.683 0)
(8.88614e-05 -7.60382e-05 0)
(0.000663954 -0.000669407 0)
(0.00295509 -0.00348218 0)
(0.00465445 -0.00636944 0)
(0.00382913 -0.00605901 0)
(0.00179627 -0.00327925 0)
(0.000214695 -0.000451967 0)
(-9.94041e-08 2.41482e-07 0)
(-4.3658e-08 1.22594e-07 0)
(-2.22765e-09 7.25104e-09 0)
(5.525e-13 -2.09409e-12 0)
(8.6522e-14 -3.84557e-13 0)
(-8.57654e-20 4.51743e-19 0)
(-4.80853e-19 3.04762e-18 0)
(-4.57179e-21 3.56372e-20 0)
(-1.06998e-21 1.05915e-20 0)
(-2.14377e-20 2.83127e-19 0)
(-3.2682e-19 6.26795e-18 0)
(-3.48206e-18 1.15764e-16 0)
(1.20555e-22 -1.29399e-20 0)
(-1.01892e-17 -9.84161e-16 0)
(-3.56478e-16 -1.22412e-14 0)
(-6.53152e-15 -1.38503e-13 0)
(-8.27611e-14 -1.28086e-12 0)
(-7.9944e-13 -9.79433e-12 0)
(-6.53402e-12 -6.64636e-11 0)