/*--------------------------------*- C++ -*----------------------------------*\
  =========                 |
  \\      /  F ield         | OpenFOAM: The Open Source CFD Toolbox
   \\    /   O peration     | Website:  https://openfoam.org
    \\  /    A nd           | Version:  7
     \\/     M anipulation  |
\*---------------------------------------------------------------------------*/
FoamFile
{
    version     2.0;
    format      ascii;
    class       volVectorField;
    location    "0";
    object      Fc;
}
// * * * * * * * * * * * * * * * * * * * * * * * * * * * * * * * * * * * * * //

dimensions      [1 -2 -2 0 0 0 0];

internalField   nonuniform List<vector> 
58002
(
(0 0 0)
(0 0 0)
(0 0 0)
(0 0 0)
(0 0 0)
(0 0 0)
(0 0 0)
(0 0 0)
(0 0 0)
(0 0 0)
(0 0 0)
(8.15238e-319 -1.06629e-318 0)
(5.19556e-314 -7.90899e-314 0)
(2.39565e-309 -4.36916e-309 0)
(6.00463e-305 -1.36813e-304 0)
(8.17206e-301 -2.46459e-300 0)
(6.01578e-297 -2.61848e-296 0)
(2.28973e-293 -1.70439e-292 0)
(3.29949e-290 -7.07269e-289 0)
(-6.8194e-287 -2.05003e-285 0)
(-4.8475e-283 -4.59449e-282 0)
(-1.42904e-279 -8.39804e-279 0)
(-3.0844e-276 -1.3501e-275 0)
(-5.92607e-273 -2.11169e-272 0)
(-1.1644e-269 -3.57591e-269 0)
(-1.9491e-266 -5.36913e-266 0)
(-2.82022e-264 -7.18739e-264 0)
(4.61625e-262 1.14863e-261 0)
(7.18901e-259 1.70548e-258 0)
(3.66811e-256 8.75294e-256 0)
(9.82744e-254 2.27783e-253 0)
(3.21859e-252 7.35214e-252 0)
(-1.54174e-247 -3.44004e-247 0)
(-2.41601e-246 -5.25242e-246 0)
(1.06894e-242 2.26175e-242 0)
(4.04203e-241 8.32004e-241 0)
(-1.85718e-236 -3.71977e-236 0)
(-3.23594e-235 -6.30928e-235 0)
(5.11231e-232 9.70762e-232 0)
(2.05977e-230 3.81058e-230 0)
(-8.87609e-226 -1.60034e-225 0)
(-2.47071e-224 -4.34247e-224 0)
(7.48354e-220 1.2825e-219 0)
(1.82567e-218 3.05137e-218 0)
(-4.04146e-214 -6.58893e-214 0)
(-7.84773e-213 -1.24817e-212 0)
(1.0516e-208 1.63187e-208 0)
(1.47031e-207 2.22628e-207 0)
(5.63915e-207 8.33207e-207 0)
(-1.63529e-205 -2.35788e-205 0)
(-5.20406e-202 -7.32248e-202 0)
(-1.17482e-197 -1.6132e-197 0)
(-1.9901e-196 -2.66672e-196 0)
(8.62783e-193 1.12822e-192 0)
(3.59506e-191 4.58746e-191 0)
(1.74886e-187 2.17763e-187 0)
(3.85974e-186 4.68944e-186 0)
(-1.38228e-182 -1.63856e-182 0)
(-1.69084e-180 -1.95535e-180 0)
(-1.13537e-177 -1.28076e-177 0)
(-2.09381e-176 -2.30357e-176 0)
(3.08415e-174 3.30871e-174 0)
(1.07183e-172 1.121e-172 0)
(-4.73607e-169 -4.82795e-169 0)
(-6.75619e-167 -6.71118e-167 0)
(-1.76444e-164 -1.70747e-164 0)
(-5.14434e-163 -4.84878e-163 0)
(4.15659e-159 3.81512e-159 0)
(1.23844e-157 1.10668e-157 0)
(1.0739e-156 9.34044e-157 0)
(5.5251e-156 4.67569e-156 0)
(1.47608e-155 1.21489e-155 0)
(2.27952e-155 1.8239e-155 0)
(2.39306e-155 1.8607e-155 0)
(2.15971e-155 1.63135e-155 0)
(1.36446e-155 1.00096e-155 0)
(3.57295e-156 2.5447e-156 0)
(-5.89997e-156 -4.0778e-156 0)
(-1.44467e-155 -9.68552e-156 0)
(-2.16941e-155 -1.41038e-155 0)
(-2.40796e-155 -1.5179e-155 0)
(-2.49175e-155 -1.52307e-155 0)
(-2.31354e-155 -1.37144e-155 0)
(-1.79395e-155 -1.03169e-155 0)
(-1.0905e-155 -6.08928e-156 0)
(-4.01248e-156 -2.17911e-156 0)
(-1.33257e-157 -7.05778e-158 0)
(9.55966e-160 4.95794e-160 0)
(1.0456e-159 5.34252e-160 0)
(1.11856e-159 5.68276e-160 0)
(1.11837e-159 5.72952e-160 0)
(1.04084e-159 5.48473e-160 0)
(9.82161e-160 5.43903e-160 0)
(7.14782e-160 4.15495e-160 0)
(2.96242e-151 1.54174e-151 0)
(0 0 0)
(0 0 0)
(0 0 0)
(0 0 0)
(0 0 0)
(0 0 0)
(0 0 0)
(0 0 0)
(0 0 0)
(0 0 0)
(0 0 0)
(-2.19674e-316 2.88498e-316 0)
(-1.90963e-311 2.92287e-311 0)
(-9.01286e-307 1.6558e-306 0)
(-2.2714e-302 5.22704e-302 0)
(-3.0454e-298 9.31558e-298 0)
(-2.15797e-294 9.60237e-294 0)
(-7.6677e-291 5.94572e-290 0)
(-9.39524e-288 2.30072e-286 0)
(2.41428e-284 6.10408e-283 0)
(1.3481e-280 1.19987e-279 0)
(3.16242e-277 1.78166e-276 0)
(4.72059e-274 1.99728e-273 0)
(4.93483e-271 1.70937e-270 0)
(3.87972e-268 1.16169e-267 0)
(2.09924e-265 5.65939e-265 0)
(1.01939e-262 2.54676e-262 0)
(2.86159e-260 6.94505e-260 0)
(6.39399e-258 1.4865e-257 0)
(9.86313e-256 2.27776e-255 0)
(1.27822e-253 2.87842e-253 0)
(3.48917e-252 7.7196e-252 0)
(-1.62882e-247 -3.52415e-247 0)
(-2.58762e-246 -5.45976e-246 0)
(1.06442e-242 2.18865e-242 0)
(4.09399e-241 8.19776e-241 0)
(-1.85674e-236 -3.6206e-236 0)
(-3.25466e-235 -6.18136e-235 0)
(5.07348e-232 9.38807e-232 0)
(2.05586e-230 3.70749e-230 0)
(-8.8257e-226 -1.55151e-225 0)
(-2.47035e-224 -4.23412e-224 0)
(7.45675e-220 1.24636e-219 0)
(1.82956e-218 2.98263e-218 0)
(-4.0339e-214 -6.41505e-214 0)
(-7.88225e-213 -1.22288e-212 0)
(1.05817e-208 1.60172e-208 0)
(1.47966e-207 2.18529e-207 0)
(5.68963e-207 8.19913e-207 0)
(-1.91213e-205 -2.68869e-205 0)
(-5.22214e-202 -7.16483e-202 0)
(-1.17879e-197 -1.57804e-197 0)
(-1.99976e-196 -2.61194e-196 0)
(8.63195e-193 1.09997e-192 0)
(3.60635e-191 4.48338e-191 0)
(1.87488e-187 2.27379e-187 0)
(4.63337e-186 5.48116e-186 0)
(-1.38677e-182 -1.60005e-182 0)
(-1.69914e-180 -1.91184e-180 0)
(-1.13779e-177 -1.24827e-177 0)
(-2.1053e-176 -2.25165e-176 0)
(3.09244e-174 3.22352e-174 0)
(1.07734e-172 1.09421e-172 0)
(-4.74602e-169 -4.6954e-169 0)
(-6.76896e-167 -6.52102e-167 0)
(-1.76784e-164 -1.65787e-164 0)
(-5.16838e-163 -4.71681e-163 0)
(4.16155e-159 3.69502e-159 0)
(1.23998e-157 1.07083e-157 0)
(1.0759e-156 9.03364e-157 0)
(5.54197e-156 4.52211e-156 0)
(1.48291e-155 1.17525e-155 0)
(2.29353e-155 1.7644e-155 0)
(2.40877e-155 1.7977e-155 0)
(2.17633e-155 1.57493e-155 0)
(1.37741e-155 9.66045e-156 0)
(3.63715e-156 2.47078e-156 0)
(-5.90543e-156 -3.88269e-156 0)
(-1.45186e-155 -9.23109e-156 0)
(-2.18375e-155 -1.34169e-155 0)
(-2.42657e-155 -1.43978e-155 0)
(-2.51309e-155 -1.43917e-155 0)
(-2.33717e-155 -1.29091e-155 0)
(-1.8164e-155 -9.66995e-156 0)
(-1.1082e-155 -5.68397e-156 0)
(-4.11157e-156 -2.03166e-156 0)
(-1.44215e-157 -6.86874e-158 0)
(9.71671e-160 4.46607e-160 0)
(1.06728e-159 4.7442e-160 0)
(1.15067e-159 4.96223e-160 0)
(1.1656e-159 4.90143e-160 0)
(1.09808e-159 4.53498e-160 0)
(1.0955e-159 4.43775e-160 0)
(7.96426e-160 3.04056e-160 0)
(1.6626e-151 4.73979e-152 0)
(0 0 0)
(0 0 0)
(0 0 0)
(0 0 0)
(0 0 0)
(0 0 0)
(0 0 0)
(0 0 0)
(0 0 0)
(0 0 0)
(0 0 0)
(1.04856e-316 -1.38197e-316 0)
(7.3541e-312 -1.13113e-311 0)
(3.24878e-307 -6.00871e-307 0)
(1.18839e-302 -2.76056e-302 0)
(1.64718e-299 -5.1079e-299 0)
(-4.60109e-295 2.0925e-294 0)
(-3.16024e-291 2.55517e-290 0)
(-4.93511e-288 1.40749e-286 0)
(2.18627e-284 4.76837e-283 0)
(1.33847e-280 1.12233e-279 0)
(3.54009e-277 1.91426e-276 0)
(6.01148e-274 2.45985e-273 0)
(7.0997e-271 2.39057e-270 0)
(6.06557e-268 1.77038e-267 0)
(3.49912e-265 9.22098e-265 0)
(1.59274e-262 3.89352e-262 0)
(4.2205e-260 9.97803e-260 0)
(8.18429e-258 1.85818e-257 0)
(1.0075e-255 2.25643e-255 0)
(9.85307e-254 2.15594e-253 0)
(1.35977e-252 2.91902e-252 0)
(2.65126e-247 5.57181e-247 0)
(9.81935e-245 2.01369e-244 0)
(1.22118e-242 2.44254e-242 0)
(-2.3059e-239 -4.49521e-239 0)
(-3.2076e-236 -6.09365e-236 0)
(-6.72736e-235 -1.24539e-234 0)
(2.06469e-230 3.72541e-230 0)
(1.01192e-228 1.77997e-228 0)
(-9.82284e-226 -1.68466e-225 0)
(-3.11206e-224 -5.20465e-224 0)
(1.15813e-219 1.88903e-219 0)
(2.96174e-218 4.7122e-218 0)
(-5.53156e-214 -8.58545e-214 0)
(-1.10462e-212 -1.67258e-212 0)
(1.05562e-208 1.55942e-208 0)
(1.44949e-207 2.08912e-207 0)
(5.82465e-207 8.1907e-207 0)
(-2.17444e-204 -2.98325e-204 0)
(-5.52436e-202 -7.39426e-202 0)
(-1.08909e-197 -1.42207e-197 0)
(-1.80017e-196 -2.2929e-196 0)
(7.03421e-193 8.73918e-193 0)
(3.35251e-191 4.06232e-191 0)
(3.95069e-187 4.66859e-187 0)
(1.81844e-185 2.09541e-185 0)
(-1.37279e-182 -1.54231e-182 0)
(-1.78619e-180 -1.95623e-180 0)
(-1.12943e-177 -1.20556e-177 0)
(-2.10122e-176 -2.18545e-176 0)
(3.03719e-174 3.07723e-174 0)
(1.07197e-172 1.05765e-172 0)
(-4.70928e-169 -4.52306e-169 0)
(-6.71583e-167 -6.27648e-167 0)
(-1.75384e-164 -1.59431e-164 0)
(-5.16993e-163 -4.56951e-163 0)
(4.12342e-159 3.54238e-159 0)
(1.2295e-157 1.02627e-157 0)
(1.06872e-156 8.66358e-157 0)
(5.5257e-156 4.34776e-156 0)
(1.48454e-155 1.13292e-155 0)
(2.30611e-155 1.7056e-155 0)
(2.4251e-155 1.73694e-155 0)
(2.19688e-155 1.52272e-155 0)
(1.39703e-155 9.36417e-156 0)
(3.77246e-156 2.44313e-156 0)
(-5.84771e-156 -3.6549e-156 0)
(-1.45251e-155 -8.75037e-156 0)
(-2.19323e-155 -1.27198e-155 0)
(-2.4443e-155 -1.36308e-155 0)
(-2.53369e-155 -1.35673e-155 0)
(-2.36339e-155 -1.21317e-155 0)
(-1.84524e-155 -9.06316e-156 0)
(-1.13462e-155 -5.32219e-156 0)
(-4.30067e-156 -1.92243e-156 0)
(-1.75198e-157 -7.44411e-158 0)
(9.72965e-160 3.91934e-160 0)
(1.07235e-159 4.08388e-160 0)
(1.1671e-159 4.18061e-160 0)
(1.19275e-159 3.98458e-160 0)
(1.27299e-159 3.9234e-160 0)
(2.80416e-160 7.74187e-161 0)
(4.69261e-160 1.07219e-160 0)
(3.49529e-152 4.75888e-153 0)
(0 0 0)
(0 0 0)
(0 0 0)
(0 0 0)
(0 0 0)
(0 0 0)
(0 0 0)
(0 0 0)
(0 0 0)
(0 0 0)
(0 0 0)
(2.06873e-315 -2.73623e-315 0)
(1.66164e-310 -2.56832e-310 0)
(7.26942e-306 -1.35359e-305 0)
(1.70976e-301 -4.0093e-301 0)
(2.09409e-297 -6.58409e-297 0)
(1.31897e-293 -6.13324e-293 0)
(3.98823e-290 -3.36803e-289 0)
(3.32664e-287 -1.13522e-285 0)
(-1.351e-283 -2.59119e-282 0)
(-5.37027e-280 -4.25651e-279 0)
(-9.98394e-277 -5.18933e-276 0)
(-1.22146e-273 -4.83771e-273 0)
(-1.08815e-270 -3.56226e-270 0)
(-7.73669e-268 -2.20068e-267 0)
(-4.40613e-265 -1.13379e-264 0)
(-2.08921e-262 -4.99004e-262 0)
(-7.19183e-260 -1.65494e-259 0)
(-1.98986e-257 -4.40062e-257 0)
(-4.40819e-255 -9.57286e-255 0)
(-2.15245e-252 -4.57144e-252 0)
(-1.12383e-250 -2.339e-250 0)
(4.00539e-246 8.16666e-246 0)
(7.10694e-243 1.41491e-242 0)
(3.25227e-241 6.31966e-241 0)
(-6.01936e-239 -1.14069e-238 0)
(-4.17893e-235 -7.72153e-235 0)
(-6.38504e-234 -1.15019e-233 0)
(2.39394e-229 4.20478e-229 0)
(9.48155e-228 1.62394e-227 0)
(-4.17929e-225 -6.98038e-225 0)
(-1.06896e-223 -1.74127e-223 0)
(6.83288e-219 1.08566e-218 0)
(1.75401e-217 2.71864e-217 0)
(-2.36108e-213 -3.57006e-213 0)
(-4.63196e-212 -6.83256e-212 0)
(1.02935e-208 1.48131e-208 0)
(1.68906e-207 2.37132e-207 0)
(5.75106e-206 7.87687e-206 0)
(-6.14649e-203 -8.21241e-203 0)
(-1.67541e-200 -2.18357e-200 0)
(2.10931e-199 2.6813e-199 0)
(7.29841e-197 9.04795e-197 0)
(-1.23846e-192 -1.49719e-192 0)
(-4.63426e-192 -5.46263e-192 0)
(1.79041e-186 2.05753e-186 0)
(1.37849e-184 1.54422e-184 0)
(-1.26252e-182 -1.37841e-182 0)
(-2.8396e-180 -3.02093e-180 0)
(-1.15438e-177 -1.19641e-177 0)
(-1.99529e-176 -2.01401e-176 0)
(3.05435e-174 3.00166e-174 0)
(8.86547e-173 8.47938e-173 0)
(-4.6417e-169 -4.31884e-169 0)
(-6.61924e-167 -5.98845e-167 0)
(-1.72331e-164 -1.51521e-164 0)
(-5.15433e-163 -4.40236e-163 0)
(4.04982e-159 3.35869e-159 0)
(1.20855e-157 9.72808e-158 0)
(1.05294e-156 8.22166e-157 0)
(5.46655e-156 4.13765e-156 0)
(1.48296e-155 1.08709e-155 0)
(2.31846e-155 1.64438e-155 0)
(2.44119e-155 1.6736e-155 0)
(2.21951e-155 1.46948e-155 0)
(1.41981e-155 9.06945e-156 0)
(3.93691e-156 2.42336e-156 0)
(-5.76735e-156 -3.41571e-156 0)
(-1.4519e-155 -8.259e-156 0)
(-2.20228e-155 -1.20113e-155 0)
(-2.45942e-155 -1.28373e-155 0)
(-2.55166e-155 -1.27174e-155 0)
(-2.38729e-155 -1.13282e-155 0)
(-1.87197e-155 -8.43021e-156 0)
(-1.15958e-155 -4.93805e-156 0)
(-4.48965e-156 -1.79929e-156 0)
(-2.1421e-157 -8.0257e-158 0)
(9.54367e-160 3.31617e-160 0)
(1.05405e-159 3.36416e-160 0)
(1.15897e-159 3.34132e-160 0)
(1.19215e-159 3.01059e-160 0)
(-1.48692e-158 -3.13921e-159 0)
(8.52843e-157 1.36557e-157 0)
(-2.27053e-148 -2.17266e-149 0)
(-2.55955e-130 -5.77276e-132 0)
(0 0 0)
(0 0 0)
(0 0 0)
(0 0 0)
(0 0 0)
(0 0 0)
(0 0 0)
(0 0 0)
(0 0 0)
(0 0 0)
(-5.68104e-318 6.55484e-318 0)
(-9.8598e-314 1.30876e-313 0)
(1.00023e-309 -1.55361e-309 0)
(8.9595e-305 -1.67959e-304 0)
(2.35062e-300 -5.56464e-300 0)
(3.03346e-296 -9.67156e-296 0)
(1.98481e-292 -9.4407e-292 0)
(6.14038e-289 -5.426e-288 0)
(4.53311e-286 -1.92417e-284 0)
(-2.74529e-282 -4.69928e-281 0)
(-1.11757e-278 -8.39765e-278 0)
(-2.25765e-275 -1.12947e-274 0)
(-3.03642e-272 -1.16491e-271 0)
(-2.93833e-269 -9.35524e-269 0)
(-2.14733e-266 -5.95385e-266 0)
(-1.14292e-263 -2.87198e-263 0)
(-4.61607e-261 -1.07797e-260 0)
(-1.24544e-258 -2.79639e-258 0)
(-2.55663e-256 -5.52084e-256 0)
(-4.35358e-254 -9.20178e-254 0)
(-8.69076e-252 -1.79749e-251 0)
(2.38499e-250 4.82839e-250 0)
(1.00713e-245 1.99777e-245 0)
(1.13037e-241 2.19066e-241 0)
(3.9406e-240 7.45901e-240 0)
(-5.43408e-237 -1.00353e-236 0)
(-5.00211e-234 -9.01061e-234 0)
(-1.67534e-232 -2.9435e-232 0)
(2.01457e-228 3.45241e-228 0)
(9.72319e-227 1.62519e-226 0)
(-4.77323e-224 -7.78142e-224 0)
(-8.08964e-223 -1.28636e-222 0)
(4.90048e-218 7.60157e-218 0)
(1.15903e-216 1.75393e-216 0)
(-1.02339e-212 -1.51081e-212 0)
(-2.84024e-211 -4.09038e-211 0)
(8.75778e-209 1.23038e-208 0)
(1.42944e-206 1.95906e-206 0)
(-6.31325e-205 -8.44015e-205 0)
(-4.35846e-201 -5.6834e-201 0)
(9.37694e-201 1.19252e-200 0)
(8.80557e-197 1.09202e-196 0)
(2.03761e-195 2.46382e-195 0)
(-1.72521e-191 -2.03371e-191 0)
(-3.69029e-190 -4.24038e-190 0)
(7.89063e-186 8.83669e-186 0)
(6.31197e-184 6.88808e-184 0)
(-1.21812e-182 -1.29505e-182 0)
(-1.15169e-179 -1.19259e-179 0)
(-1.50135e-177 -1.51385e-177 0)
(-1.30281e-176 -1.27877e-176 0)
(3.44737e-174 3.29266e-174 0)
(6.21543e-173 5.77415e-173 0)
(-4.49733e-169 -4.06166e-169 0)
(-6.39604e-167 -5.61231e-167 0)
(-1.6721e-164 -1.42469e-164 0)
(-5.09065e-163 -4.20944e-163 0)
(3.93909e-159 3.15949e-159 0)
(1.1733e-157 9.12378e-158 0)
(1.02659e-156 7.7345e-157 0)
(5.3735e-156 3.91913e-156 0)
(1.46168e-155 1.0309e-155 0)
(2.32974e-155 1.58701e-155 0)
(2.46695e-155 1.62117e-155 0)
(2.26203e-155 1.43244e-155 0)
(1.46992e-155 8.95878e-156 0)
(4.39131e-156 2.57185e-156 0)
(-5.43895e-156 -3.05486e-156 0)
(-1.43351e-155 -7.704e-156 0)
(-2.20163e-155 -1.12949e-155 0)
(-2.47897e-155 -1.2109e-155 0)
(-2.57744e-155 -1.19473e-155 0)
(-2.43191e-155 -1.06514e-155 0)
(-1.92994e-155 -7.94776e-156 0)
(-1.21768e-155 -4.68835e-156 0)
(-4.93793e-156 -1.76351e-156 0)
(-3.78792e-157 -1.24002e-157 0)
(-6.75231e-158 -1.99406e-158 0)
(-5.87823e-158 -1.53403e-158 0)
(-3.83703e-158 -8.54437e-159 0)
(-1.31346e-157 -2.32102e-158 0)
(-5.21233e-155 -6.31193e-156 0)
(-1.76466e-144 -9.28447e-146 0)
(1.30705e-132 -4.20347e-134 0)
(-1.65115e-128 1.67273e-129 0)
(0 0 0)
(0 0 0)
(0 0 0)
(0 0 0)
(0 0 0)
(0 0 0)
(0 0 0)
(0 0 0)
(0 0 0)
(0 0 0)
(2.79273e-318 -3.23044e-318 0)
(4.39501e-313 -5.85458e-313 0)
(3.64123e-308 -5.68361e-308 0)
(1.58293e-303 -2.98761e-303 0)
(3.56411e-299 -8.51821e-299 0)
(4.12645e-295 -1.3343e-294 0)
(2.43115e-291 -1.18336e-290 0)
(6.73719e-288 -6.24188e-287 0)
(3.66506e-285 -2.0557e-283 0)
(-3.05788e-281 -4.72679e-280 0)
(-1.12561e-277 -8.0401e-277 0)
(-2.16238e-274 -1.04261e-273 0)
(-2.82242e-271 -1.04976e-270 0)
(-2.69369e-268 -8.34593e-268 0)
(-1.97142e-265 -5.33167e-265 0)
(-1.08534e-262 -2.66519e-262 0)
(-4.68305e-260 -1.07039e-259 0)
(-1.64592e-257 -3.61301e-257 0)
(-4.82827e-255 -1.02001e-254 0)
(-1.25027e-252 -2.57837e-252 0)
(-5.8393e-250 -1.17854e-249 0)
(-5.60558e-248 -1.10655e-247 0)
(8.99347e-244 1.73952e-243 0)
(4.09885e-241 7.74929e-241 0)
(-6.73627e-238 -1.24452e-237 0)
(-4.20874e-236 -7.58829e-236 0)
(-1.80761e-233 -3.18015e-233 0)
(7.8584e-231 1.34903e-230 0)
(7.83525e-228 1.31234e-227 0)
(-1.75241e-227 -2.86325e-227 0)
(-3.42655e-223 -5.46121e-223 0)
(-3.28773e-222 -5.11178e-222 0)
(9.41531e-218 1.42819e-217 0)
(2.07646e-216 3.07288e-216 0)
(-1.3325e-212 -1.92368e-212 0)
(-1.25537e-210 -1.76793e-210 0)
(7.49103e-209 1.02908e-208 0)
(-1.07087e-206 -1.43498e-206 0)
(-1.44831e-203 -1.89296e-203 0)
(-6.59659e-201 -8.40841e-201 0)
(5.51122e-199 6.85002e-199 0)
(6.27936e-196 7.60915e-196 0)
(1.45077e-194 1.71367e-194 0)
(-1.33774e-190 -1.54007e-190 0)
(-2.77308e-189 -3.111e-189 0)
(3.35366e-185 3.66559e-185 0)
(1.54684e-183 1.64689e-183 0)
(-1.48429e-182 -1.53896e-182 0)
(-6.65785e-179 -6.72067e-179 0)
(-3.34392e-177 -3.28527e-177 0)
(2.21015e-176 2.11263e-176 0)
(6.12963e-174 5.69825e-174 0)
(1.40105e-172 1.26605e-172 0)
(-4.15165e-169 -3.64458e-169 0)
(-5.8038e-167 -4.94628e-167 0)
(-1.60082e-164 -1.32359e-164 0)
(-5.02002e-163 -4.02418e-163 0)
(3.728e-159 2.89571e-159 0)
(1.12324e-157 8.44882e-158 0)
(9.81861e-157 7.14659e-157 0)
(5.24108e-156 3.68775e-156 0)
(1.46074e-155 9.92328e-156 0)
(2.37585e-155 1.55605e-155 0)
(2.79279e-155 1.76094e-155 0)
(2.72293e-155 1.65066e-155 0)
(2.00311e-155 1.16568e-155 0)
(1.72128e-155 9.59703e-156 0)
(1.69919e-154 9.05415e-155 0)
(1.1904e-153 6.04469e-154 0)
(4.14925e-153 2.00177e-153 0)
(7.75126e-153 3.54072e-153 0)
(8.98585e-153 3.86895e-153 0)
(9.16882e-153 3.69885e-153 0)
(8.17423e-153 3.06788e-153 0)
(6.30998e-153 2.18499e-153 0)
(4.21477e-153 1.33104e-153 0)
(2.28596e-153 6.46518e-154 0)
(6.92177e-154 1.70543e-154 0)
(-5.47956e-158 -1.13049e-158 0)
(-5.51477e-158 -8.89685e-159 0)
(1.52131e-155 1.61872e-156 0)
(-3.06622e-150 -1.15639e-151 0)
(-5.53408e-141 2.73557e-142 0)
(3.38093e-132 -5.61224e-133 0)
(-3.05701e-128 8.79603e-129 0)
(2.13439e-48 -1.1253e-48 0)
(-2.10927e-50 1.26746e-50 0)
(-1.61111e-50 9.3638e-51 0)
(-1.89159e-41 1.0628e-41 0)
(-2.79015e-36 1.54733e-36 0)
(-1.05036e-32 5.82708e-33 0)
(-6.65168e-30 3.72924e-30 0)
(-1.51134e-27 8.63641e-28 0)
(-1.69049e-25 9.90519e-26 0)
(-1.29544e-23 7.80448e-24 0)
(-7.89388e-22 4.90053e-22 0)
(-4.5558e-20 2.92602e-20 0)
(-2.71253e-18 1.81182e-18 0)
(-1.86177e-16 1.30019e-16 0)
(-1.40995e-14 1.03575e-14 0)
(-1.08274e-12 8.43278e-13 0)
(-6.83019e-11 5.69357e-11 0)
(-3.15624e-09 2.84145e-09 0)
(-1.13132e-07 1.10742e-07 0)
(1.22009e-48 -3.57915e-49 0)
(-2.2423e-50 8.88628e-51 0)
(-1.72379e-50 7.33002e-51 0)
(-2.0592e-41 9.03062e-42 0)
(-2.98209e-36 1.34989e-36 0)
(-1.11087e-32 5.1968e-33 0)
(-6.94955e-30 3.35988e-30 0)
(-1.56423e-27 7.85332e-28 0)
(-1.74268e-25 9.10817e-26 0)
(-1.33328e-23 7.24666e-24 0)
(-8.11251e-22 4.58851e-22 0)
(-4.69483e-20 2.77319e-20 0)
(-2.84222e-18 1.75987e-18 0)
(-2.02199e-16 1.31649e-16 0)
(-1.60377e-14 1.10273e-14 0)
(-1.27176e-12 9.29579e-13 0)
(-8.14276e-11 6.37556e-11 0)
(-3.77277e-09 3.18484e-09 0)
(-1.34213e-07 1.22653e-07 0)
(1.73636e-49 -2.46298e-50 0)
(-3.32659e-50 7.91395e-51 0)
(-3.04944e-50 8.89122e-51 0)
(-2.33222e-41 7.64621e-42 0)
(-3.29872e-36 1.17775e-36 0)
(-1.2156e-32 4.67497e-33 0)
(-7.46882e-30 3.07022e-30 0)
(-1.6504e-27 7.2129e-28 0)
(-1.8283e-25 8.4471e-26 0)
(-1.40767e-23 6.84957e-24 0)
(-8.78882e-22 4.50578e-22 0)
(-5.55835e-20 3.0081e-20 0)
(-4.07976e-18 2.3325e-18 0)
(-3.62633e-16 2.19197e-16 0)
(-3.35165e-14 2.14875e-14 0)
(-2.73286e-12 1.86858e-12 0)
(-1.69804e-10 1.24536e-10 0)
(-7.47653e-09 5.90519e-09 0)
(-2.42363e-07 2.06532e-07 0)
(2.22329e-40 -5.40514e-42 0)
(-3.13027e-48 3.15505e-49 0)
(-2.87155e-48 4.89425e-49 0)
(-2.83108e-41 6.3808e-42 0)
(-3.73915e-36 1.00265e-36 0)
(-1.35606e-32 4.1547e-33 0)
(-8.1675e-30 2.79474e-30 0)
(-1.7888e-27 6.69531e-28 0)
(-2.02432e-25 8.16172e-26 0)
(-1.68586e-23 7.27605e-24 0)
(-1.30887e-21 6.04105e-22 0)
(-1.22559e-19 6.04005e-20 0)
(-1.30258e-17 6.8351e-18 0)
(-1.36506e-15 7.61856e-16 0)
(-1.24331e-13 7.39815e-14 0)
(-9.05255e-12 5.76778e-12 0)
(-4.93533e-10 3.37899e-10 0)
(-1.82209e-08 1.34267e-08 0)
(-4.83655e-07 3.83612e-07 0)
(-3.15154e-34 -3.2321e-35 0)
(-3.21774e-41 -9.69448e-43 0)
(-1.56369e-48 8.95591e-50 0)
(-3.2869e-41 4.26777e-42 0)
(-4.25668e-36 7.94296e-37 0)
(-1.49733e-32 3.51172e-33 0)
(-9.22462e-30 2.55693e-30 0)
(-2.18663e-27 6.8721e-28 0)
(-2.88484e-25 1.00233e-25 0)
(-3.399e-23 1.29142e-23 0)
(-4.20967e-21 1.7393e-21 0)
(-5.49057e-19 2.45091e-19 0)
(-6.23429e-17 2.98797e-17 0)
(-6.14759e-15 3.15583e-15 0)
(-4.81674e-13 2.65241e-13 0)
(-2.98044e-11 1.76511e-11 0)
(-1.33864e-09 8.53601e-10 0)
(-4.08557e-08 2.80349e-08 0)
(-9.03085e-07 6.6599e-07 0)
(-8.81135e-32 -2.55265e-32 0)
(-1.77731e-35 -2.95904e-36 0)
(1.8024e-40 8.91188e-42 0)
(-7.38071e-40 3.0253e-41 0)
(-4.81657e-36 5.34467e-37 0)
(-1.81338e-32 3.03866e-33 0)
(-1.26546e-29 2.72817e-30 0)
(-4.06462e-27 1.04493e-27 0)
(-7.88677e-25 2.32433e-25 0)
(-1.39758e-22 4.62745e-23 0)
(-2.12484e-20 7.79517e-21 0)
(-2.85832e-18 1.1473e-18 0)
(-2.96362e-16 1.28963e-16 0)
(-2.58792e-14 1.21643e-14 0)
(-1.69963e-12 8.63054e-13 0)
(-8.94814e-11 4.91012e-11 0)
(-3.42364e-09 2.02736e-09 0)
(-8.66346e-08 5.52276e-08 0)
(-1.6393e-06 1.12236e-06 0)
(-1.98433e-06 2.11601e-06 0)
(-2.93429e-05 3.40165e-05 0)
(-0.000598455 0.000750627 0)
(-0.00183662 0.00247334 0)
(-0.0024237 0.00347011 0)
(-0.00192836 0.00290271 0)
(-0.00070803 0.0011075 0)
(-5.96209e-05 9.58004e-05 0)
(2.31645e-08 -3.78208e-08 0)
(6.1588e-09 -1.01137e-08 0)
(1.0271e-10 -1.68034e-10 0)
(-1.08529e-13 1.75306e-13 0)
(-3.08955e-14 4.8858e-14 0)
(-4.49395e-13 6.90225e-13 0)
(-5.37406e-12 7.95674e-12 0)
(-4.91711e-11 6.96899e-11 0)
(-3.53746e-10 4.76787e-10 0)
(-2.14779e-09 2.73585e-09 0)
(-1.15086e-08 1.37715e-08 0)
(-5.48831e-08 6.1332e-08 0)
(-2.36039e-07 2.4487e-07 0)
(-9.23419e-07 8.83892e-07 0)
(-3.30711e-06 2.90204e-06 0)
(-1.11651e-05 8.91999e-06 0)
(-3.45644e-05 2.49504e-05 0)
(-0.000100602 6.5057e-05 0)
(-0.00027794 0.000159449 0)
(-0.000732972 0.000368769 0)
(-0.00185202 0.00080594 0)
(-0.00449198 0.00166203 0)
(-0.0104647 0.0032204 0)
(-0.0234653 0.00583103 0)
(-0.0508952 0.00979092 0)
(-0.107493 0.0149943 0)
(-0.222131 0.0199891 0)
(-0.449612 0.0198015 0)
(-0.889541 0.00167811 0)
(-1.71502 -0.0620436 0)
(-3.20891 -0.223983 0)
(-5.78864 -0.571128 0)
(-9.98229 -1.22407 0)
(-16.2999 -2.31364 0)
(-24.9538 -3.92986 0)
(-35.4629 -6.05721 0)
(-46.4403 -8.53636 0)
(-56.4873 -11.1752 0)
(-65.2016 -13.9069 0)
(-72.1506 -16.6359 0)
(-77.2347 -19.2985 0)
(-80.5711 -21.8574 0)
(-82.3849 -24.2954 0)
(-82.9305 -26.6078 0)
(-82.4487 -28.7995 0)
(-81.1518 -30.8783 0)
(-79.2229 -32.8559 0)
(-76.8234 -34.7503 0)
(-74.0821 -36.5806 0)
(-71.094 -38.3665 0)
(-67.9341 -40.1268 0)
(-64.6603 -41.8824 0)
(-61.2907 -43.6401 0)
(-57.8399 -45.4048 0)
(-54.3168 -47.1827 0)
(-50.7324 -48.9787 0)
(-47.0968 -50.7973 0)
(-43.417 -52.6457 0)
(-39.7023 -54.5297 0)
(-35.9605 -56.4548 0)
(-32.2002 -58.4273 0)
(-28.4321 -60.4542 0)
(-24.6638 -62.5453 0)
(-20.9065 -64.7074 0)
(-17.1724 -66.9501 0)
(-13.4746 -69.2843 0)
(-9.82883 -71.719 0)
(-6.25009 -74.2682 0)
(-2.75976 -76.944 0)
(0.618135 -79.7605 0)
(3.85534 -82.7325 0)
(6.91691 -85.8749 0)
(9.76402 -89.2068 0)
(12.3461 -92.7431 0)
(14.603 -96.5003 0)
(16.4602 -100.485 0)
(17.8238 -104.691 0)
(18.5795 -109.097 0)
(18.586 -113.648 0)
(17.6753 -118.245 0)
(15.6538 -122.722 0)
(12.3193 -126.818 0)
(7.48713 -130.148 0)
(1.05896 -132.23 0)
(-6.89682 -132.674 0)
(-16.1077 -131.159 0)
(-26.0655 -127.497 0)
(-36.0233 -121.556 0)
(-44.1847 -110.949 0)
(-2.33663e-06 2.31227e-06 0)
(-4.04176e-05 4.3203e-05 0)
(-0.00066533 0.000764883 0)
(-0.0018729 0.00229994 0)
(-0.00236319 0.00307249 0)
(-0.00173497 0.00236404 0)
(-0.000578355 0.000817194 0)
(-4.0894e-05 5.92997e-05 0)
(3.27576e-08 -4.82735e-08 0)
(7.34595e-09 -1.09002e-08 0)
(5.63118e-11 -8.33982e-11 0)
(-1.26978e-13 1.86117e-13 0)
(-1.22566e-14 1.76363e-14 0)
(-1.23412e-13 1.72986e-13 0)
(-1.3048e-12 1.76867e-12 0)
(-1.04778e-11 1.36411e-11 0)
(-6.59066e-11 8.18811e-11 0)
(-3.48509e-10 4.10652e-10 0)
(-1.6195e-09 1.79909e-09 0)
(-6.66598e-09 6.94028e-09 0)
(-2.46621e-08 2.39215e-08 0)
(-8.23958e-08 7.40002e-08 0)
(-2.50276e-07 2.06778e-07 0)
(-7.06857e-07 5.33528e-07 0)
(-1.8163e-06 1.24293e-06 0)
(-4.34044e-06 2.6702e-06 0)
(-9.71176e-06 5.31935e-06 0)
(-2.03952e-05 9.83453e-06 0)
(-4.03238e-05 1.68899e-05 0)
(-7.48854e-05 2.68013e-05 0)
(-0.000131908 3.9506e-05 0)
(-0.000224147 5.46513e-05 0)
(-0.000387578 7.4038e-05 0)
(-0.000738822 0.000104402 0)
(-0.00171915 0.000163125 0)
(-0.0048716 0.000253571 0)
(-0.0154108 0.000203087 0)
(-0.0478417 -0.00101619 0)
(-0.140547 -0.00711293 0)
(-0.387909 -0.0288197 0)
(-0.999301 -0.0917412 0)
(-2.37991 -0.245302 0)
(-5.18175 -0.563752 0)
(-10.2501 -1.13435 0)
(-18.3224 -2.03688 0)
(-28.6857 -3.23263 0)
(-39.5183 -4.6066 0)
(-49.7397 -6.14429 0)
(-58.5567 -7.83614 0)
(-65.5834 -9.66569 0)
(-70.7438 -11.6053 0)
(-74.1714 -13.6209 0)
(-76.0845 -15.68 0)
(-76.7235 -17.7519 0)
(-76.3204 -19.8112 0)
(-75.0935 -21.8416 0)
(-73.2347 -23.835 0)
(-70.8918 -25.7897 0)
(-68.1796 -27.705 0)
(-65.1815 -29.5812 0)
(-61.9812 -31.4319 0)
(-58.6341 -33.2675 0)
(-55.1765 -35.0997 0)
(-51.6384 -36.9387 0)
(-48.0359 -38.7893 0)
(-44.3848 -40.6623 0)
(-40.6973 -42.5636 0)
(-36.9841 -44.5004 0)
(-33.2547 -46.4794 0)
(-29.5205 -48.5068 0)
(-25.7896 -50.592 0)
(-22.0738 -52.7412 0)
(-18.386 -54.9631 0)
(-14.7397 -57.2671 0)
(-11.1514 -59.6606 0)
(-7.63667 -62.1558 0)
(-4.21774 -64.761 0)
(-0.919633 -67.4865 0)
(2.22838 -70.3426 0)
(5.1903 -73.3371 0)
(7.92564 -76.4771 0)
(10.3826 -79.7665 0)
(12.498 -83.1936 0)
(14.1954 -86.7394 0)
(15.3809 -90.3627 0)
(15.9443 -94.0007 0)
(15.7552 -97.5417 0)
(14.6696 -100.815 0)
(12.5396 -103.564 0)
(9.24501 -105.435 0)
(4.73722 -105.956 0)
(-0.880157 -104.711 0)
(-7.30739 -101.514 0)
(-14.0676 -96.293 0)
(-20.5308 -89.121 0)
(-25.9004 -79.9372 0)
(-28.4078 -66.5845 0)
(-3.86125e-06 3.54678e-06 0)
(-8.63919e-05 8.53094e-05 0)
(-0.000791758 0.000837105 0)
(-0.00181722 0.00204417 0)
(-0.00203473 0.0024152 0)
(-0.00130553 0.00161983 0)
(-0.000354849 0.000455765 0)
(-1.56693e-05 2.06385e-05 0)
(5.75592e-08 -7.70591e-08 0)
(9.12048e-09 -1.23066e-08 0)
(9.22856e-12 -1.24481e-11 0)
(-1.41239e-13 1.88925e-13 0)
(-2.14268e-15 2.82008e-15 0)
(3.77203e-19 -4.84825e-19 0)
(5.47557e-19 -6.82433e-19 0)
(-1.13678e-17 1.36468e-17 0)
(-4.02905e-17 4.62951e-17 0)
(-4.89799e-17 5.3543e-17 0)
(5.52717e-17 -5.71438e-17 0)
(1.03067e-15 -1.00186e-15 0)
(3.6531e-15 -3.31871e-15 0)
(-1.01699e-14 8.58155e-15 0)
(-2.47217e-13 1.92507e-13 0)
(-2.48207e-12 1.77125e-12 0)
(-1.91607e-11 1.24359e-11 0)
(-1.30242e-10 7.62355e-11 0)
(-8.34207e-10 4.36196e-10 0)
(-5.17345e-09 2.39005e-09 0)
(-3.09445e-08 1.24673e-08 0)
(-1.67621e-07 5.79714e-08 0)
(-8.34163e-07 2.42789e-07 0)
(-3.77088e-06 9.00182e-07 0)
(-1.52396e-05 2.88083e-06 0)
(-5.63532e-05 8.01523e-06 0)
(-0.00020002 1.97143e-05 0)
(-0.000700486 4.08641e-05 0)
(-0.00242798 5.32829e-05 0)
(-0.00819929 -8.3049e-05 0)
(-0.025743 -0.000960368 0)
(-0.0762665 -0.00449583 0)
(-0.215978 -0.0160815 0)
(-0.589523 -0.0491929 0)
(-1.52774 -0.131321 0)
(-3.62432 -0.299834 0)
(-7.5823 -0.571075 0)
(-13.9553 -0.923508 0)
(-22.4112 -1.29735 0)
(-31.9656 -1.66966 0)
(-41.5877 -2.08829 0)
(-50.349 -2.62962 0)
(-57.6852 -3.36297 0)
(-63.3497 -4.32007 0)
(-67.3499 -5.50178 0)
(-69.8198 -6.882 0)
(-70.9657 -8.42213 0)
(-71.0113 -10.0809 0)
(-70.1775 -11.8203 0)
(-68.6571 -13.612 0)
(-66.6057 -15.4346 0)
(-64.1457 -17.2742 0)
(-61.3722 -19.1222 0)
(-58.3588 -20.974 0)
(-55.1609 -22.831 0)
(-51.8239 -24.6955 0)
(-48.3833 -26.5717 0)
(-44.8607 -28.4646 0)
(-41.2791 -30.3795 0)
(-37.6573 -32.3232 0)
(-34.0102 -34.3022 0)
(-30.3521 -36.322 0)
(-26.6943 -38.3911 0)
(-23.0503 -40.5149 0)
(-19.4349 -42.7011 0)
(-15.8634 -44.9568 0)
(-12.3537 -47.289 0)
(-8.9224 -49.7068 0)
(-5.59285 -52.2143 0)
(-2.39155 -54.8192 0)
(0.651281 -57.5268 0)
(3.49872 -60.3381 0)
(6.10937 -63.252 0)
(8.43034 -66.2591 0)
(10.3983 -69.3368 0)
(11.9377 -72.4478 0)
(12.9581 -75.5294 0)
(13.3555 -78.4834 0)
(13.0139 -81.159 0)
(11.8162 -83.3352 0)
(9.66486 -84.7146 0)
(6.52337 -84.9213 0)
(2.46851 -83.5436 0)
(-2.24735 -80.343 0)
(-7.20703 -75.3325 0)
(-11.8914 -68.6516 0)
(-15.7421 -60.5725 0)
(-18.1563 -51.1891 0)
(-17.9659 -39.2938 0)
(-6.70701e-06 5.7158e-06 0)
(-0.00016895 0.000154259 0)
(-0.000913673 0.000890267 0)
(-0.00168003 0.0017364 0)
(-0.00167394 0.00182075 0)
(-0.000940868 0.00106748 0)
(-0.00019839 0.000232685 0)
(-3.17507e-06 3.8168e-06 0)
(1.03219e-07 -1.26151e-07 0)
(1.02882e-08 -1.26841e-08 0)
(-5.40407e-13 6.66928e-13 0)
(-1.30695e-13 1.60219e-13 0)
(-9.40679e-16 1.13685e-15 0)
(1.81117e-19 -2.14218e-19 0)
(4.4992e-20 -5.17201e-20 0)
(5.16585e-22 -5.73413e-22 0)
(6.18587e-20 -6.58942e-20 0)
(2.58667e-18 -2.62859e-18 0)
(7.09094e-18 -6.83402e-18 0)
(1.71864e-17 -1.56171e-17 0)
(-2.0654e-17 1.75902e-17 0)
(-1.43425e-15 1.13779e-15 0)
(-1.65841e-14 1.21752e-14 0)
(-1.58697e-13 1.07072e-13 0)
(-1.26269e-12 7.77032e-13 0)
(-8.93967e-12 4.97585e-12 0)
(-5.99647e-11 2.99063e-11 0)
(-3.95233e-10 1.74725e-10 0)
(-2.58408e-09 9.99874e-10 0)
(-1.50768e-08 5.0288e-09 0)
(-8.04245e-08 2.26916e-08 0)
(-3.88159e-07 9.04281e-08 0)
(-1.65998e-06 3.09143e-07 0)
(-6.41012e-06 9.11491e-07 0)
(-2.36778e-05 2.39456e-06 0)
(-8.67686e-05 5.49768e-06 0)
(-0.000317047 9.27931e-06 0)
(-0.00114284 -7.87682e-07 0)
(-0.00391957 -0.000101846 0)
(-0.0122487 -0.000564036 0)
(-0.0354626 -0.00213973 0)
(-0.0965424 -0.00660593 0)
(-0.251268 -0.0176204 0)
(-0.631816 -0.0414766 0)
(-1.53519 -0.0856168 0)
(-3.55497 -0.149203 0)
(-7.53218 -0.197986 0)
(-13.7866 -0.148674 0)
(-21.7575 0.0593247 0)
(-30.4802 0.39389 0)
(-39.1156 0.748665 0)
(-46.8493 0.990424 0)
(-53.2735 1.00979 0)
(-58.1795 0.742255 0)
(-61.5738 0.1722 0)
(-63.5802 -0.682106 0)
(-64.3842 -1.77884 0)
(-64.1989 -3.07036 0)
(-63.2183 -4.51188 0)
(-61.6099 -6.06634 0)
(-59.5139 -7.70443 0)
(-57.0405 -9.40393 0)
(-54.2738 -11.1511 0)
(-51.2826 -12.9361 0)
(-48.1203 -14.7536 0)
(-44.826 -16.6027 0)
(-41.4333 -18.4827 0)
(-37.9693 -20.3949 0)
(-34.4572 -22.3423 0)
(-30.9186 -24.3286 0)
(-27.3692 -26.3599 0)
(-23.8275 -28.4412 0)
(-20.31 -30.5769 0)
(-16.8352 -32.7732 0)
(-13.4226 -35.0348 0)
(-10.0906 -37.368 0)
(-6.86356 -39.7727 0)
(-3.77015 -42.2528 0)
(-0.841834 -44.8068 0)
(1.88277 -47.4274 0)
(4.36024 -50.1024 0)
(6.53495 -52.8042 0)
(8.34167 -55.4943 0)
(9.70458 -58.1108 0)
(10.5361 -60.5579 0)
(10.7415 -62.6982 0)
(10.2267 -64.3368 0)
(8.91849 -65.2127 0)
(6.79571 -65.0101 0)
(3.93863 -63.399 0)
(0.571423 -60.1327 0)
(-2.92854 -55.2281 0)
(-6.1076 -48.9174 0)
(-8.53432 -41.5776 0)
(-9.88573 -33.7035 0)
(-9.92664 -25.5794 0)
(-8.25874 -16.8767 0)
(-1.06735e-05 8.43953e-06 0)
(-0.000282071 0.000238403 0)
(-0.000994619 0.000894998 0)
(-0.00145453 0.00138508 0)
(-0.0013297 0.0013297 0)
(-0.000645337 0.000672006 0)
(-0.000105921 0.000113903 0)
(3.11667e-07 -3.43396e-07 0)
(1.47254e-07 -1.65001e-07 0)
(9.87078e-09 -1.11665e-08 0)
(-1.19531e-12 1.3552e-12 0)
(-1.65638e-13 1.86817e-13 0)
(-4.09921e-16 4.5655e-16 0)
(9.71494e-20 -1.06088e-19 0)
(7.29595e-21 -7.75926e-21 0)
(1.19784e-22 -1.23281e-22 0)