/*--------------------------------*- C++ -*----------------------------------*\
  =========                 |
  \\      /  F ield         | OpenFOAM: The Open Source CFD Toolbox
   \\    /   O peration     | Website:  https://openfoam.org
    \\  /    A nd           | Version:  7
     \\/     M anipulation  |
\*---------------------------------------------------------------------------*/
FoamFile
{
    version     2.0;
    format      ascii;
    class       volScalarField;
    location    "0.0436581/insulator";
    object      voltI;
}
// * * * * * * * * * * * * * * * * * * * * * * * * * * * * * * * * * * * * * //

dimensions      [1 2 -3 0 0 -1 0];

internalField   nonuniform List<scalar> 
28992
(
3471.7
3482.02
3498.94
3520.48
3545.04
3570.92
3596.05
3617.69
3632.56
3637.57
3631.16
3614.05
3588.98
3559.6
3529.26
3500.44
3474.53
3452.13
3433.27
3417.68
3404.97
3394.69
3386.43
3379.84
3374.58
3370.41
3367.1
3364.48
3362.41
3360.77
3359.51
3358.45
3357.38
3356.31
3355.24
3354.16
3353.09
3352.01
3350.93
3349.85
3348.77
3347.68
3346.6
3345.51
3344.42
3343.33
3342.24
3341.15
3340.05
3338.96
3337.86
3336.76
3335.66
3334.56
3333.46
3332.35
3331.25
3330.14
3329.03
3327.92
3326.81
3325.7
3324.58
3323.47
3322.35
3321.23
3320.11
3318.99
3317.87
3316.75
3315.62
3314.5
3313.37
3312.25
3311.12
3309.99
3308.86
3307.72
3306.59
3305.46
3304.32
3303.19
3302.05
3300.91
3299.77
3298.63
3297.49
3296.35
3295.21
3294.06
3292.92
3291.77
3290.63
3289.48
3288.33
3471.51
3481.75
3498.54
3519.89
3544.21
3569.95
3595.44
3618.85
3638.26
3651.78
3657.8
3655.27
3644.16
3625.75
3602.37
3576.68
3551.03
3527.05
3505.66
3487.2
3471.66
3458.8
3448.28
3439.75
3432.89
3427.4
3423.02
3419.53
3416.77
3414.57
3412.89
3411.45
3410.01
3408.57
3407.12
3405.67
3404.21
3402.75
3401.28
3399.81
3398.33
3396.85
3395.37
3393.88
3392.39
3390.89
3389.39
3387.88
3386.37
3384.86
3383.34
3381.82
3380.29
3378.76
3377.22
3375.68
3374.14
3372.59
3371.04
3369.49
3367.93
3366.37
3364.8
3363.23
3361.66
3360.08
3358.5
3356.91
3355.32
3353.73
3352.14
3350.54
3348.93
3347.33
3345.72
3344.11
3342.49
3340.87
3339.25
3337.62
3335.99
3334.36
3332.73
3331.09
3329.45
3327.8
3326.16
3324.51
3322.85
3321.2
3319.54
3317.88
3316.22
3314.55
3312.88
3471.28
3481.44
3498.07
3519.19
3543.23
3568.77
3594.49
3619.42
3642.95
3664.74
3684.09
3699.6
3709.24
3711.31
3705.29
3692.23
3674.26
3653.82
3633
3613.28
3595.49
3580.02
3566.89
3555.94
3546.95
3539.62
3533.71
3528.96
3525.16
3522.13
3519.79
3517.79
3515.78
3513.76
3511.72
3509.67
3507.61
3505.53
3503.44
3501.34
3499.23
3497.1
3494.96
3492.81
3490.64
3488.46
3486.27
3484.07
3481.85
3479.63
3477.38
3475.13
3472.86
3470.58
3468.29
3465.99
3463.67
3461.35
3459.01
3456.65
3454.29
3451.91
3449.53
3447.13
3444.71
3442.29
3439.86
3437.41
3434.95
3432.48
3430
3427.51
3425.01
3422.5
3419.97
3417.44
3414.89
3412.33
3409.77
3407.19
3404.6
3402
3399.39
3396.78
3394.15
3391.51
3388.86
3386.21
3383.54
3380.86
3378.18
3375.49
3372.78
3370.07
3367.35
3471.08
3481.16
3497.65
3518.56
3542.36
3567.67
3593.48
3619.33
3645.57
3673.04
3702.24
3732.54
3761.89
3787.26
3805.69
3815.43
3816.43
3810.18
3798.91
3784.92
3770.07
3755.67
3742.48
3730.86
3720.92
3712.57
3705.66
3700.02
3695.44
3691.75
3688.88
3686.42
3683.92
3681.39
3678.83
3676.24
3673.62
3670.96
3668.28
3665.56
3662.81
3660.03
3657.22
3654.37
3651.49
3648.58
3645.64
3642.67
3639.66
3636.62
3633.55
3630.45
3627.31
3624.14
3620.94
3617.7
3614.44
3611.14
3607.8
3604.44
3601.04
3597.61
3594.15
3590.65
3587.13
3583.57
3579.98
3576.35
3572.7
3569.01
3565.29
3561.54
3557.75
3553.94
3550.09
3546.22
3542.31
3538.37
3534.4
3530.4
3526.37
3522.31
3518.22
3514.11
3509.96
3505.78
3501.57
3497.34
3493.07
3488.78
3484.46
3480.12
3475.74
3471.34
3466.92
3470.91
3480.94
3497.32
3518.07
3541.65
3566.78
3592.56
3618.91
3646.74
3677.64
3713.04
3753.25
3797.05
3841.68
3883.52
3919.07
3945.91
3963.26
3971.88
3973.57
3970.43
3964.41
3957.04
3949.36
3942.04
3935.42
3929.64
3924.73
3920.62
3917.24
3914.56
3912.24
3909.85
3907.41
3904.9
3902.34
3899.72
3897.03
3894.29
3891.48
3888.6
3885.67
3882.67
3879.61
3876.48
3873.28
3870.02
3866.69
3863.29
3859.83
3856.29
3852.69
3849.02
3845.27
3841.46
3837.57
3833.62
3829.59
3825.49
3821.31
3817.06
3812.74
3808.35
3803.88
3799.34
3794.72
3790.02
3785.25
3780.41
3775.49
3770.49
3765.42
3760.27
3755.05
3749.75
3744.37
3738.92
3733.39
3727.78
3722.1
3716.34
3710.51
3704.6
3698.62
3692.56
3686.42
3680.21
3673.93
3667.57
3661.14
3654.64
3648.06
3641.42
3634.7
3627.91
3470.79
3480.77
3497.06
3517.69
3541.12
3566.09
3591.82
3618.42
3647.14
3680.02
3719.06
3765.3
3818.33
3876.15
3935.53
3992.65
4043.92
4086.74
4119.98
4143.91
4159.8
4169.39
4174.44
4176.45
4176.58
4175.66
4174.23
4172.64
4171.08
4169.64
4168.42
4167.31
4166.11
4164.83
4163.46
4162.01
4160.47
4158.84
4157.11
4155.29
4153.38
4151.37
4149.26
4147.04
4144.72
4142.3
4139.77
4137.13
4134.38
4131.52
4128.54
4125.45
4122.23
4118.9
4115.44
4111.86
4108.15
4104.32
4100.35
4096.25
4092.02
4087.66
4083.16
4078.52
4073.73
4068.81
4063.74
4058.53
4053.17
4047.66
4042.01
4036.2
4030.24
4024.13
4017.86
4011.43
4004.85
3998.11
3991.21
3984.15
3976.93
3969.55
3962.01
3954.3
3946.43
3938.4
3930.2
3921.84
3913.32
3904.63
3895.77
3886.76
3877.58
3868.23
3858.73
3470.7
3480.64
3496.88
3517.41
3540.73
3565.58
3591.25
3617.97
3647.18
3681.19
3722.34
3772.13
3830.71
3896.76
3967.65
4039.86
4109.59
4173.41
4228.9
4274.91
4311.47
4339.51
4360.42
4375.69
4386.68
4394.52
4400.1
4404.07
4406.91
4408.96
4410.4
4411.54
4412.6
4413.57
4414.45
4415.24
4415.93
4416.52
4417.01
4417.39
4417.67
4417.83
4417.87
4417.79
4417.58
4417.25
4416.79
4416.18
4415.44
4414.55
4413.52
4412.33
4410.98
4409.47
4407.79
4405.94
4403.92
4401.71
4399.32
4396.74
4393.97
4391
4387.82
4384.44
4380.84
4377.02
4372.99
4368.72
4364.22
4359.49
4354.51
4349.29
4343.81
4338.08
4332.09
4325.84
4319.31
4312.52
4305.45
4298.09
4290.45
4282.53
4274.31
4265.79
4256.98
4247.86
4238.44
4228.72
4218.68
4208.33
4197.66
4186.68
4175.38
4163.76
4151.82
3470.63
3480.55
3496.74
3517.21
3540.45
3565.21
3590.83
3617.61
3647.1
3681.76
3724.13
3775.99
3837.86
3908.87
3986.88
4068.78
4150.89
4229.56
4301.74
4365.34
4419.44
4464.08
4500.06
4528.55
4550.84
4568.13
4581.51
4591.83
4599.8
4605.96
4610.6
4614.48
4618.31
4622.07
4625.77
4629.4
4632.96
4636.44
4639.84
4643.15
4646.37
4649.5
4652.53
4655.44
4658.25
4660.94
4663.5
4665.94
4668.24
4670.4
4672.4
4674.26
4675.95
4677.47
4678.81
4679.96
4680.93
4681.69
4682.24
4682.57
4682.68
4682.56
4682.18
4681.56
4680.67
4679.51
4678.07
4676.34
4674.31
4671.96
4669.3
4666.3
4662.96
4659.27
4655.21
4650.79
4645.98
4640.77
4635.16
4629.14
4622.7
4615.82
4608.49
4600.71
4592.47
4583.75
4574.55
4564.86
4554.68
4543.98
4532.77
4521.03
4508.77
4495.97
4482.62
3470.59
3480.49
3496.65
3517.07
3540.24
3564.95
3590.52
3617.32
3646.98
3682.03
3725.13
3778.22
3842.04
3916.03
3998.39
4086.29
4176.28
4264.71
4348.23
4424.28
4491.28
4548.63
4596.58
4635.94
4667.79
4693.3
4713.59
4729.66
4742.34
4752.34
4759.98
4766.45
4772.91
4779.36
4785.79
4792.19
4798.57
4804.92
4811.23
4817.51
4823.74
4829.91
4836.03
4842.09
4848.09
4854
4859.84
4865.59
4871.24
4876.78
4882.22
4887.54
4892.73
4897.78
4902.68
4907.42
4912
4916.4
4920.61
4924.61
4928.41
4931.97
4935.3
4938.37
4941.18
4943.7
4945.93
4947.85
4949.44
4950.69
4951.58
4952.09
4952.21
4951.92
4951.2
4950.03
4948.39
4946.27
4943.65
4940.5
4936.81
4932.56
4927.73
4922.29
4916.24
4909.54
4902.19
4894.16
4885.43
4875.98
4865.8
4854.87
4843.18
4830.69
4817.41
3470.55
3480.44
3496.58
3516.97
3540.1
3564.76
3590.3
3617.11
3646.86
3682.15
3725.69
3779.53
3844.55
3920.35
4005.37
4096.99
4191.93
4286.58
4377.51
4461.88
4537.71
4603.99
4660.56
4707.91
4746.95
4778.75
4804.42
4825
4841.44
4854.51
4864.57
4873.15
4881.77
4890.42
4899.11
4907.82
4916.56
4925.32
4934.1
4942.9
4951.71
4960.52
4969.33
4978.14
4986.94
4995.73
5004.49
5013.23
5021.92
5030.58
5039.18
5047.72
5056.19
5064.59
5072.89
5081.1
5089.19
5097.15
5104.99
5112.67
5120.18
5127.52
5134.66
5141.59
5148.29
5154.75
5160.94
5166.84
5172.44
5177.71
5182.63
5187.18
5191.34
5195.07
5198.36
5201.17
5203.48
5205.27
5206.5
5207.14
5207.17
5206.55
5205.26
5203.26
5200.52
5197.01
5192.7
5187.55
5181.54
5174.63
5166.79
5157.98
5148.19
5137.37
5125.51
3470.53
3480.41
3496.53
3516.9
3540
3564.63
3590.14
3616.96
3646.77
3682.2
3726.03
3780.33
3846.09
3923.02
4009.69
4103.65
4201.71
4300.34
4396.05
4485.86
4567.56
4639.87
4702.35
4755.28
4799.39
4835.68
4865.23
4889.11
4908.3
4923.64
4935.51
4945.65
4955.88
4966.19
4976.58
4987.04
4997.58
5008.18
5018.86
5029.6
5040.4
5051.27
5062.19
5073.16
5084.18
5095.24
5106.34
5117.47
5128.63
5139.8
5150.99
5162.19
5173.38
5184.55
5195.71
5206.83
5217.91
5228.93
5239.88
5250.75
5261.52
5272.18
5282.71
5293.09
5303.31
5313.33
5323.16
5332.75
5342.09
5351.15
5359.9
5368.33
5376.39
5384.06
5391.31
5398.1
5404.41
5410.18
5415.4
5420.01
5423.98
5427.26
5429.83
5431.62
5432.61
5432.74
5431.97
5430.26
5427.55
5423.81
5418.98
5413.03
5405.89
5397.54
5387.92
3470.51
3480.39
3496.5
3516.85
3539.93
3564.53
3590.03
3616.85
3646.7
3682.22
3726.23
3780.83
3847.06
3924.71
4012.44
4107.88
4207.94
4309.12
4407.93
4501.3
4586.89
4663.21
4729.68
4786.4
4834
4873.39
4905.65
4931.84
4952.96
4969.91
4983.06
4994.33
5005.71
5017.2
5028.81
5040.53
5052.36
5064.3
5076.35
5088.51
5100.77
5113.14
5125.61
5138.18
5150.84
5163.6
5176.45
5189.38
5202.39
5215.48
5228.63
5241.85
5255.12
5268.44
5281.81
5295.2
5308.61
5322.03
5335.45
5348.85
5362.22
5375.55
5388.82
5402
5415.09
5428.06
5440.89
5453.56
5466.04
5478.3
5490.32
5502.06
5513.5
5524.59
5535.31
5545.61
5555.46
5564.81
5573.62
5581.84
5589.43
5596.34
5602.51
5607.88
5612.42
5616.06
5618.74
5620.4
5621
5620.45
5618.72
5615.73
5611.42
5605.75
5598.63
3470.5
3480.37
3496.47
3516.81
3539.88
3564.47
3589.96
3616.77
3646.64
3682.23
3726.35
3781.15
3847.68
3925.8
4014.21
4110.62
4211.98
4314.83
4415.67
4511.39
4599.55
4678.56
4747.71
4806.99
4856.95
4898.47
4932.59
4960.37
4982.83
5000.89
5014.93
5026.98
5039.16
5051.48
5063.94
5076.55
5089.29
5102.17
5115.19
5128.35
5141.65
5155.09
5168.67
5182.38
5196.22
5210.2
5224.3
5238.54
5252.89
5267.36
5281.95
5296.65
5311.45
5326.35
5341.34
5356.42
5371.57
5386.78
5402.05
5417.36
5432.7
5448.05
5463.4
5478.74
5494.04
5509.28
5524.45
5539.52
5554.46
5569.24
5583.84
5598.23
5612.37
5626.22
5639.75
5652.91
5665.66
5677.96
5689.75
5700.98
5711.6
5721.56
5730.79
5739.23
5746.81
5753.49
5759.17
5763.8
5767.31
5769.62
5770.67
5770.37
5768.66
5765.46
5760.7
3470.49
3480.36
3496.46
3516.79
3539.85
3564.42
3589.9
3616.72
3646.6
3682.24
3726.43
3781.36
3848.1
3926.52
4015.38
4112.42
4214.65
4318.6
4420.79
4518.07
4607.95
4688.76
4759.71
4820.73
4872.3
4915.27
4950.66
4979.53
5002.91
5021.74
5036.4
5048.97
5061.71
5074.61
5087.66
5100.88
5114.26
5127.79
5141.49
5155.35
5169.38
5183.57
5197.92
5212.43
5227.1
5241.94
5256.94
5272.09
5287.39
5302.85
5318.46
5334.22
5350.12
5366.15
5382.32
5398.6
5415.01
5431.52
5448.14
5464.84
5481.61
5498.45
5515.34
5532.27
5549.2
5566.14
5583.05
5599.91
5616.7
5633.39
5649.95
5666.35
5682.55
5698.51
5714.2
5729.57
5744.57
5759.16
5773.28
5786.88
5799.9
5812.28
5823.94
5834.83
5844.87
5853.99
5862.12
5869.17
5875.06
5879.72
5883.07
5885.01
5885.47
5884.36
5881.59
3470.49
3480.36
3496.45
3516.77
3539.82
3564.39
3589.86
3616.68
3646.58
3682.23
3726.48
3781.5
3848.37
3927
4016.16
4113.63
4216.43
4321.12
4424.22
4522.55
4613.59
4695.62
4767.79
4829.99
4882.65
4926.61
4962.87
4992.49
5016.51
5035.86
5050.94
5063.89
5077.01
5090.3
5103.77
5117.4
5131.22
5145.21
5159.38
5173.73
5188.25
5202.96
5217.85
5232.93
5248.18
5263.62
5279.24
5295.03
5311.01
5327.16
5343.49
5359.99
5376.66
5393.5
5410.5
5427.65
5444.95
5462.39
5479.96
5497.66
5515.46
5533.37
5551.37
5569.44
5587.56
5605.72
5623.9
5642.08
5660.22
5678.3
5696.3
5714.18
5731.91
5749.44
5766.73
5783.75
5800.44
5816.76
5832.64
5848.02
5862.86
5877.07
5890.6
5903.36
5915.29
5926.3
5936.3
5945.23
5952.98
5959.48
5964.62
5968.33
5970.5
5971.04
5969.87
3470.48
3480.35
3496.44
3516.76
3539.81
3564.37
3589.84
3616.65
3646.56
3682.23
3726.52
3781.59
3848.55
3927.33
4016.69
4114.45
4217.63
4322.83
4426.54
4525.58
4617.41
4700.27
4773.27
4836.27
4889.69
4934.33
4971.18
5001.31
5025.77
5045.49
5060.85
5074.06
5087.44
5101.01
5114.75
5128.69
5142.8
5157.11
5171.6
5186.29
5201.16
5216.23
5231.5
5246.96
5262.62
5278.48
5294.53
5310.78
5327.21
5343.85
5360.69
5377.71
5394.93
5412.32
5429.9
5447.66
5465.59
5483.69
5501.94
5520.34
5538.88
5557.55
5576.33
5595.22
5614.19
5633.23
5652.31
5671.43
5690.54
5709.63
5728.67
5747.62
5766.45
5785.12
5803.58
5821.81
5839.73
5857.31
5874.48
5891.18
5907.36
5922.93
5937.84
5951.99
5965.32
5977.74
5989.16
5999.49
6008.64
6016.52
6023.02
6028.06
6031.53
6033.33
6033.37
3470.48
3480.35
3496.43
3516.75
3539.79
3564.35
3589.82
3616.63
3646.54
3682.23
3726.54
3781.65
3848.68
3927.55
4017.05
4115
4218.45
4323.99
4428.12
4527.65
4620.01
4703.44
4777.02
4840.57
4894.5
4939.6
4976.87
5007.36
5032.11
5052.08
5067.65
5081.03
5094.59
5108.35
5122.29
5136.42
5150.75
5165.27
5179.99
5194.91
5210.03
5225.35
5240.88
5256.61
5272.55
5288.69
5305.05
5321.61
5338.37
5355.35
5372.53
5389.92
5407.51
5425.31
5443.3
5461.48
5479.85
5498.4
5517.13
5536.03
5555.09
5574.29
5593.63
5613.09
5632.66
5652.32
5672.05
5691.83
5711.64
5731.44
5751.22
5770.93
5790.55
5810.04
5829.35
5848.43
5867.24
5885.73
5903.83
5921.49
5938.63
5955.2
5971.1
5986.27
6000.62
6014.07
6026.52
6037.88
6048.06
6056.95
6064.46
6070.48
6074.9
6077.64
6078.58
3470.48
3480.34
3496.43
3516.75
3539.79
3564.34
3589.81
3616.62
3646.53
3682.23
3726.56
3781.7
3848.77
3927.7
4017.3
4115.38
4219.01
4324.78
4429.2
4529.06
4621.8
4705.61
4779.58
4843.52
4897.8
4943.23
4980.77
5011.51
5036.47
5056.61
5072.32
5085.82
5099.51
5113.4
5127.47
5141.75
5156.22
5170.89
5185.77
5200.85
5216.13
5231.63
5247.34
5263.26
5279.39
5295.74
5312.3
5329.08
5346.07
5363.28
5380.71
5398.36
5416.21
5434.28
5452.55
5471.03
5489.71
5508.59
5527.65
5546.89
5566.31
5585.89
5605.62
5625.48
5645.47
5665.57
5685.75
5706
5726.3
5746.61
5766.91
5787.17
5807.35
5827.41
5847.31
5867.01
5886.46
5905.59
5924.36
5942.7
5960.53
5977.8
5994.43
6010.33
6025.42
6039.6
6052.8
6064.9
6075.82
6085.44
6093.67
6100.4
6105.52
6108.93
6110.52
3470.48
3480.34
3496.43
3516.74
3539.78
3564.34
3589.8
3616.61
3646.52
3682.23
3726.57
3781.73
3848.83
3927.8
4017.47
4115.65
4219.4
4325.33
4429.94
4530.04
4623.03
4707.11
4781.35
4845.55
4900.08
4945.73
4983.47
5014.37
5039.48
5059.74
5075.54
5089.13
5102.91
5116.88
5131.05
5145.42
5160
5174.77
5189.76
5204.95
5220.35
5235.97
5251.8
5267.85
5284.12
5300.6
5317.31
5334.25
5351.39
5368.77
5386.37
5404.19
5422.23
5440.49
5458.96
5477.65
5496.54
5515.64
5534.94
5554.42
5574.09
5593.93
5613.93
5634.08
5654.37
5674.77
5695.27
5715.85
5736.49
5757.16
5777.83
5798.46
5819.04
5839.51
5859.83
5879.96
5899.85
5919.45
5938.68
5957.5
5975.84
5993.61
6010.74
6027.16
6042.77
6057.48
6071.2
6083.84
6095.28
6105.43
6114.18
6121.42
6127.04
6130.93
6132.99
3470.48
3480.34
3496.42
3516.74
3539.78
3564.33
3589.79
3616.61
3646.52
3682.23
3726.57
3781.75
3848.87
3927.87
4017.58
4115.83
4219.67
4325.71
4430.46
4530.71
4623.88
4708.15
4782.58
4846.95
4901.65
4947.45
4985.33
5016.35
5041.55
5061.9
5077.77
5091.41
5105.25
5119.29
5133.53
5147.97
5162.61
5177.46
5192.51
5207.78
5223.27
5238.97
5254.89
5271.03
5287.39
5303.98
5320.79
5337.82
5355.08
5372.57
5390.29
5408.23
5426.4
5444.79
5463.4
5482.23
5501.28
5520.53
5539.99
5559.65
5579.49
5599.51
5619.71
5640.05
5660.54
5681.16
5701.88
5722.7
5743.57
5764.49
5785.42
5806.32
5827.17
5847.93
5868.55
5888.98
5909.19
5929.1
5948.67
5967.83
5986.51
6004.63
6022.13
6038.91
6054.89
6069.98
6084.07
6097.08
6108.9
6119.42
6128.53
6136.13
6142.1
6146.34
6148.73
3470.48
3480.34
3496.42
3516.74
3539.77
3564.32
3589.78
3616.6
3646.51
3682.23
3726.58
3781.78
3848.93
3927.98
4017.76
4116.1
4220.08
4326.29
4431.25
4531.74
4625.18
4709.73
4784.45
4849.1
4904.06
4950.1
4988.19
5019.39
5044.74
5065.22
5081.19
5094.92
5108.86
5122.99
5137.33
5151.87
5166.62
5181.58
5196.75
5212.14
5227.75
5243.58
5259.63
5275.91
5292.41
5309.15
5326.12
5343.31
5360.74
5378.4
5396.3
5414.44
5432.8
5451.4
5470.22
5489.28
5508.55
5528.05
5547.76
5567.67
5587.79
5608.1
5628.58
5649.23
5670.04
5690.99
5712.06
5733.23
5754.48
5775.78
5797.1
5818.42
5839.7
5860.9
5881.98
5902.89
5923.58
5943.99
5964.08
5983.76
6002.98
6021.66
6039.71
6057.06
6073.61
6089.28
6103.96
6117.55
6129.95
6141.05
6150.73
6158.9
6165.42
6170.19
6173.1
3470.47
3480.34
3496.42
3516.73
3539.76
3564.31
3589.77
3616.58
3646.5
3682.23
3726.6
3781.82
3849.02
3928.14
4018.02
4116.5
4220.67
4327.13
4432.39
4533.24
4627.06
4712.03
4787.16
4852.22
4907.56
4953.94
4992.33
5023.79
5049.37
5070.03
5086.15
5100.01
5114.08
5128.36
5142.84
5157.53
5172.44
5187.56
5202.9
5218.46
5234.25
5250.27
5266.52
5283
5299.72
5316.68
5333.87
5351.31
5368.98
5386.9
5405.07
5423.48
5442.13
5461.03
5480.17
5499.55
5519.17
5539.02
5559.1
5579.4
5599.91
5620.64
5641.56
5662.66
5683.94
5705.38
5726.96
5748.66
5770.46
5792.33
5814.25
5836.19
5858.11
5879.97
5901.73
5923.35
5944.77
5965.93
5986.79
6007.27
6027.3
6046.8
6065.7
6083.91
6101.33
6117.88
6133.44
6147.92
6161.2
6173.18
6183.74
6192.76
6200.12
6205.71
6209.41
3470.47
3480.33
3496.41
3516.72
3539.75
3564.3
3589.75
3616.57
3646.49
3682.23
3726.62
3781.87
3849.11
3928.3
4018.28
4116.9
4221.25
4327.95
4433.51
4534.71
4628.92
4714.3
4789.84
4855.3
4911.01
4957.73
4996.42
5028.15
5053.94
5074.79
5091.05
5105.05
5119.25
5133.67
5148.29
5163.14
5178.2
5193.48
5208.99
5224.73
5240.7
5256.91
5273.35
5290.03
5306.96
5324.14
5341.56
5359.23
5377.15
5395.33
5413.76
5432.45
5451.4
5470.6
5490.05
5509.76
5529.72
5549.92
5570.37
5591.06
5611.98
5633.12
5654.48
5676.04
5697.8
5719.73
5741.82
5764.06
5786.42
5808.87
5831.4
5853.96
5876.53
5899.06
5921.52
5943.86
5966.03
5987.96
6009.61
6030.9
6051.76
6072.12
6091.89
6110.98
6129.3
6146.75
6163.22
6178.62
6192.82
6205.71
6217.17
6227.07
6235.31
6241.75
6246.28
3470.47
3480.33
3496.41
3516.72
3539.74
3564.29
3589.74
3616.55
3646.48
3682.22
3726.63
3781.91
3849.2
3928.46
4018.53
4117.29
4221.83
4328.77
4434.62
4536.16
4630.75
4716.53
4792.49
4858.34
4914.42
4961.48
5000.47
5032.45
5058.46
5079.49
5095.9
5110.03
5124.37
5138.92
5153.69
5168.68
5183.9
5199.34
5215.02
5230.93
5247.08
5263.47
5280.11
5297
5314.13
5331.53
5349.18
5367.09
5385.25
5403.69
5422.39
5441.36
5460.59
5480.09
5499.86
5519.9
5540.2
5560.76
5581.58
5602.66
5623.98
5645.55
5667.35
5689.37
5711.6
5734.04
5756.65
5779.43
5802.35
5825.4
5848.53
5871.73
5894.96
5918.18
5941.35
5964.42
5987.35
6010.07
6032.53
6054.65
6076.37
6097.6
6118.26
6138.26
6157.5
6175.89
6193.31
6209.65
6224.8
6238.63
6251.03
6261.86
6271
6278.33
6283.72
3470.47
3480.33
3496.41
3516.71
3539.74
3564.28
3589.73
3616.54
3646.47
3682.22
3726.65
3781.95
3849.28
3928.61
4018.78
4117.67
4222.39
4329.57
4435.71
4537.59
4632.56
4718.74
4795.09
4861.34
4917.79
4965.18
5004.46
5036.7
5062.93
5084.14
5100.7
5114.95
5129.42
5144.11
5159.02
5174.16
5189.53
5205.14
5220.98
5237.06
5253.39
5269.97
5286.8
5303.89
5321.24
5338.85
5356.72
5374.87
5393.28
5411.97
5430.94
5450.18
5469.71
5489.51
5509.6
5529.96
5550.61
5571.53
5592.72
5614.19
5635.92
5657.91
5680.16
5702.64
5725.35
5748.29
5771.43
5794.76
5818.25
5841.89
5865.65
5889.49
5913.39
5937.31
5961.21
5985.03
6008.73
6032.25
6055.54
6078.51
6101.11
6123.24
6144.82
6165.75
6185.95
6205.3
6223.7
6241.02
6257.15
6271.96
6285.32
6297.12
6307.2
6315.45
6321.73
3470.47
3480.33
3496.4
3516.71
3539.73
3564.26
3589.71
3616.52
3646.46
3682.22
3726.66
3781.99
3849.37
3928.76
4019.02
4118.05
4222.95
4330.36
4436.79
4539
4634.34
4720.91
4797.66
4864.3
4921.11
4968.83
5008.4
5040.89
5067.34
5088.73
5105.43
5119.81
5134.41
5149.24
5164.29
5179.58
5195.1
5210.87
5226.87
5243.13
5259.63
5276.4
5293.42
5310.71
5328.27
5346.09
5364.19
5382.58
5401.23
5420.18
5439.41
5458.94
5478.75
5498.86
5519.26
5539.95
5560.94
5582.22
5603.79
5625.64
5647.79
5670.2
5692.89
5715.84
5739.04
5762.49
5786.16
5810.04
5834.11
5858.36
5882.74
5907.24
5931.82
5956.45
5981.08
6005.67
6030.16
6054.5
6078.63
6102.48
6125.97
6149.03
6171.55
6193.45
6214.63
6234.98
6254.38
6272.71
6289.86
6305.68
6320.06
6332.84
6343.91
6353.11
6360.32
3470.46
3480.32
3496.4
3516.7
3539.72
3564.25
3589.7
3616.51
3646.45
3682.22
3726.67
3782.04
3849.45
3928.91
4019.26
4118.42
4223.5
4331.14
4437.85
4540.39
4636.09
4723.05
4800.2
4867.21
4924.38
4972.43
5012.29
5045.03
5071.69
5093.26
5110.1
5124.61
5139.34
5154.3
5169.5
5184.93
5200.61
5216.53
5232.7
5249.12
5265.81
5282.75
5299.97
5317.46
5335.22
5353.26
5371.59
5390.2
5409.1
5428.31
5447.8
5467.61
5487.71
5508.12
5528.83
5549.86
5571.19
5592.83
5614.77
5637.02
5659.57
5682.42
5705.56
5728.97
5752.67
5776.62
5800.83
5825.27
5849.93
5874.78
5899.8
5924.96
5950.24
5975.58
6000.96
6026.33
6051.63
6076.81
6101.81
6126.55
6150.96
6174.96
6198.46
6221.35
6243.54
6264.92
6285.36
6304.74
6322.94
6339.81
6355.23
6369.05
6381.13
6391.33
6399.5
3470.46
3480.32
3496.39
3516.69
3539.71
3564.24
3589.68
3616.49
3646.43
3682.21
3726.69
3782.08
3849.53
3929.05
4019.5
4118.79
4224.04
4331.91
4438.89
4541.76
4637.82
4725.16
4802.69
4870.08
4927.61
4975.98
5016.13
5049.11
5075.98
5097.73
5114.72
5129.35
5144.21
5159.31
5174.64
5190.22
5206.04
5222.12
5238.45
5255.04
5271.9
5289.03
5306.44
5324.12
5342.09
5360.35
5378.9
5397.75
5416.89
5436.35
5456.11
5476.19
5496.58
5517.29
5538.32
5559.68
5581.35
5603.35
5625.67
5648.31
5671.28
5694.55
5718.14
5742.03
5766.22
5790.69
5815.44
5840.44
5865.69
5891.16
5916.82
5942.66
5968.63
5994.71
6020.85
6047.01
6073.14
6099.17
6125.05
6150.71
6176.07
6201.04
6225.53
6249.45
6272.68
6295.11
6316.63
6337.1
6356.38
6374.35
6390.85
6405.74
6418.88
6430.11
6439.29
3470.46
3480.32
3496.39
3516.69
3539.7
3564.23
3589.67
3616.48
3646.42
3682.21
3726.7
3782.12
3849.62
3929.19
4019.74
4119.15
4224.57
4332.66
4439.92
4543.1
4639.52
4727.24
4805.15
4872.92
4930.79
4979.48
5019.91
5053.14
5080.22
5102.14
5119.27
5134.02
5149.01
5164.24
5179.71
5195.43
5211.41
5227.64
5244.13
5260.89
5277.93
5295.24
5312.83
5330.71
5348.89
5367.36
5386.13
5405.21
5424.6
5444.31
5464.34
5484.69
5505.37
5526.38
5547.72
5569.41
5591.43
5613.78
5636.48
5659.52
5682.89
5706.6
5730.64
5755
5779.69
5804.68
5829.97
5855.54
5881.39
5907.48
5933.79
5960.31
5987
6013.82
6040.73
6067.7
6094.67
6121.57
6148.36
6174.96
6201.28
6227.25
6252.77
6277.73
6302.04
6325.57
6348.19
6369.78
6390.19
6409.29
6426.92
6442.92
6457.16
6469.47
6479.69
3470.46
3480.31
3496.38
3516.68
3539.69
3564.22
3589.65
3616.47
3646.41
3682.21
3726.71
3782.16
3849.7
3929.34
4019.97
4119.5
4225.1
4333.4
4440.93
4544.42
4641.19
4729.28
4807.57
4875.7
4933.92
4982.92
5023.64
5057.11
5084.39
5106.48
5123.75
5138.63
5153.75
5169.11
5184.72
5200.58
5216.7
5233.09
5249.74
5266.67
5283.87
5301.36
5319.15
5337.22
5355.6
5374.28
5393.28
5412.59
5432.22
5452.18
5472.47
5493.09
5514.06
5535.37
5557.03
5579.04
5601.4
5624.12
5647.2
5670.63
5694.42
5718.56
5743.05
5767.89
5793.07
5818.59
5844.42
5870.57
5897.01
5923.74
5950.71
5977.92
6005.33
6032.9
6060.6
6088.39
6116.21
6144.01
6171.72
6199.27
6226.59
6253.58
6280.15
6306.2
6331.62
6356.27
6380.04
6402.79
6424.37
6444.64
6463.43
6480.6
6495.97
6509.4
6520.71
3470.46
3480.31
3496.38
3516.67
3539.68
3564.2
3589.64
3616.45
3646.4
3682.2
3726.73
3782.19
3849.77
3929.47
4020.19
4119.85
4225.61
4334.13
4441.92
4545.73
4642.84
4731.29
4809.95
4878.45
4937.01
4986.32
5027.31
5061.02
5088.51
5110.77
5128.17
5143.17
5158.41
5173.9
5189.65
5205.65
5221.92
5238.46
5255.27
5272.36
5289.74
5307.41
5325.38
5343.65
5362.23
5381.12
5400.34
5419.88
5439.74
5459.95
5480.51
5501.41
5522.66
5544.27
5566.24
5588.58
5611.29
5634.36
5657.81
5681.64
5705.84
5730.42
5755.37
5780.68
5806.36
5832.4
5858.79
5885.52
5912.57
5939.92
5967.56
5995.47
6023.61
6051.95
6080.45
6109.07
6137.76
6166.47
6195.13
6223.66
6251.99
6280.03
6307.69
6334.85
6361.4
6387.23
6412.18
6436.13
6458.92
6480.4
6500.4
6518.77
6535.33
6549.92
6562.36
3470.45
3480.31
3496.38
3516.67
3539.67
3564.19
3589.63
3616.44
3646.39
3682.2
3726.74
3782.23
3849.85
3929.61
4020.41
4120.2
4226.12
4334.85
4442.9
4547
4644.45
4733.27
4812.29
4881.15
4940.04
4989.66
5030.92
5064.87
5092.56
5114.99
5132.53
5147.64
5163.01
5178.63
5194.51
5210.65
5227.07
5243.75
5260.72
5277.98
5295.53
5313.37
5331.52
5349.99
5368.77
5387.87
5407.3
5427.07
5447.18
5467.64
5488.45
5509.62
5531.16
5553.07
5575.35
5598.01
5621.06
5644.5
5668.33
5692.55
5717.16
5742.17
5767.58
5793.37
5819.56
5846.12
5873.07
5900.37
5928.03
5956.03
5984.35
6012.96
6041.83
6070.95
6100.26
6129.73
6159.31
6188.94
6218.56
6248.1
6277.47
6306.59
6335.36
6363.67
6391.4
6418.42
6444.6
6469.79
6493.83
6516.56
6537.82
6557.44
6575.23
6591.03
6604.65
3470.45
3480.31
3496.37
3516.66
3539.66
3564.18
3589.61
3616.42
3646.38
3682.2
3726.75
3782.27
3849.93
3929.74
4020.63
4120.53
4226.62
4335.55
4443.85
4548.26
4646.04
4735.21
4814.6
4883.8
4943.03
4992.95
5034.47
5068.65
5096.54
5119.14
5136.82
5152.05
5167.54
5183.29
5199.3
5215.58
5232.14
5248.97
5266.1
5283.51
5301.23
5319.25
5337.58
5356.24
5375.22
5394.53
5414.18
5434.17
5454.51
5475.22
5496.29
5517.73
5539.55
5561.76
5584.35
5607.34
5630.73
5654.53
5678.73
5703.35
5728.38
5753.82
5779.68
5805.95
5832.64
5859.74
5887.24
5915.13
5943.41
5972.05
6001.04
6030.37
6059.99
6089.89
6120.03
6150.37
6180.85
6211.42
6242.02
6272.59
6303.02
6333.25
6363.16
6392.64
6421.58
6449.85
6477.29
6503.76
6529.1
6553.14
6575.71
6596.62
6615.69
6632.75
6647.6
3470.45
3480.3
3496.37
3516.66
3539.66
3564.17
3589.6
3616.41
3646.36
3682.19
3726.76
3782.3
3850
3929.88
4020.85
4120.87
4227.11
4336.24
4444.8
4549.5
4647.61
4737.12
4816.86
4886.41
4945.96
4996.18
5037.97
5072.38
5100.47
5123.23
5141.03
5156.38
5172
5187.87
5204.01
5220.43
5237.13
5254.11
5271.39
5288.96
5306.85
5325.04
5343.56
5362.4
5381.57
5401.09
5420.95
5441.17
5461.75
5482.7
5504.03
5525.74
5547.84
5570.34
5593.25
5616.56
5640.29
5664.44
5689.02
5714.03
5739.47
5765.35
5791.67
5818.42
5845.61
5873.24
5901.3
5929.78
5958.68
5987.97
6017.65
6047.69
6078.08
6108.77
6139.75
6170.96
6202.36
6233.89
6265.5
6297.11
6328.63
6359.99
6391.07
6421.77
6451.96
6481.5
6510.25
6538.05
6564.74
6590.13
6614.05
6636.31
6656.71
6675.07
6691.2
3470.45
3480.3
3496.36
3516.65
3539.65
3564.16
3589.58
3616.39
3646.35
3682.19
3726.77
3782.34
3850.07
3930.01
4021.06
4121.19
4227.59
4336.92
4445.72
4550.71
4649.14
4738.99
4819.08
4888.97
4948.85
4999.35
5041.41
5076.04
5104.32
5127.24
5145.18
5160.65
5176.38
5192.38
5208.65
5225.2
5242.04
5259.17
5276.59
5294.33
5312.38
5330.74
5349.44
5368.47
5387.84
5407.56
5427.63
5448.08
5468.88
5490.08
5511.66
5533.64
5556.02
5578.81
5602.03
5625.66
5649.73
5674.24
5699.19
5724.59
5750.44
5776.76
5803.53
5830.77
5858.47
5886.63
5915.25
5944.32
5973.83
6003.79
6034.16
6064.93
6096.07
6127.58
6159.4
6191.49
6223.83
6256.34
6288.97
6321.65
6354.29
6386.81
6419.1
6451.04
6482.51
6513.38
6543.48
6572.65
6600.73
6627.53
6652.85
6676.51
6698.3
6718.03
6735.48
3470.45
3480.3
3496.36
3516.64
3539.64
3564.15
3589.57
3616.38
3646.34
3682.18
3726.78
3782.37
3850.15
3930.13
4021.27
4121.51
4228.06
4337.59
4446.63
4551.9
4650.64
4740.84
4821.27
4891.49
4951.68
5002.47
5044.78
5079.64
5108.11
5131.19
5149.26
5164.84
5180.69
5196.81
5213.21
5229.89
5246.87
5264.14
5281.72
5299.61
5317.82
5336.35
5355.22
5374.44
5394
5413.92
5434.21
5454.87
5475.91
5497.35
5519.18
5541.43
5564.09
5587.17
5610.69
5634.64
5659.05
5683.91
5709.23
5735.02
5761.29
5788.04
5815.27
5842.98
5871.19
5899.88
5929.07
5958.73
5988.87
6019.48
6050.55
6082.05
6113.97
6146.29
6178.97
6211.97
6245.25
6278.76
6312.43
6346.2
6379.99
6413.69
6447.22
6480.44
6513.24
6545.46
6576.96
6607.56
6637.08
6665.34
6692.12
6717.24
6740.47
6761.61
6780.44
3470.44
3480.29
3496.35
3516.64
3539.63
3564.13
3589.55
3616.36
3646.33
3682.18
3726.79
3782.41
3850.22
3930.26
4021.47
4121.82
4228.52
4338.24
4447.52
4553.07
4652.12
4742.64
4823.41
4893.96
4954.46
5005.54
5048.1
5083.18
5111.83
5135.07
5153.27
5168.96
5184.92
5201.17
5217.69
5234.5
5251.61
5269.03
5286.75
5304.8
5323.17
5341.87
5360.92
5380.31
5400.07
5420.19
5440.68
5461.56
5482.83
5504.51
5526.59
5549.1
5572.03
5595.4
5619.22
5643.5
5668.24
5693.45
5719.15
5745.33
5772.01
5799.18
5826.87
5855.07
5883.78
5913.01
5942.75
5973.01
6003.78
6035.06
6066.82
6099.06
6131.77
6164.9
6198.45
6232.36
6266.61
6301.13
6335.87
6370.75
6405.7
6440.63
6475.42
6509.97
6544.13
6577.76
6610.7
6642.77
6673.79
6703.55
6731.86
6758.49
6783.22
6805.83
6826.11
3470.44
3480.29
3496.35
3516.63
3539.62
3564.12
3589.54
3616.35
3646.31
3682.17
3726.8
3782.44
3850.29
3930.38
4021.67
4122.13
4228.97
4338.89
4448.39
4554.21
4653.57
4744.41
4825.51
4896.38
4957.18
5008.54
5051.35
5086.65
5115.49
5138.88
5157.2
5173
5189.08
5205.44
5222.09
5239.03
5256.28
5273.83
5291.7
5309.9
5328.43
5347.3
5366.51
5386.09
5406.03
5426.35
5447.05
5468.15
5489.64
5511.55
5533.88
5556.65
5579.86
5603.52
5627.64
5652.23
5677.3
5702.86
5728.92
5755.49
5782.58
5810.19
5838.33
5867
5896.22
5925.98
5956.3
5987.15
6018.55
6050.49
6082.96
6115.95
6149.44
6183.41
6217.83
6252.67
6287.89
6323.44
6359.26
6395.28
6431.43
6467.6
6503.7
6539.6
6575.16
6610.24
6644.67
6678.27
6710.84
6742.18
6772.06
6800.26
6826.56
6850.7
6872.48
3470.44
3480.29
3496.35
3516.62
3539.61
3564.11
3589.53
3616.33
3646.3
3682.17
3726.81
3782.47
3850.35
3930.5
4021.86
4122.43
4229.42
4339.52
4449.25
4555.33
4654.99
4746.15
4827.56
4898.75
4959.86
5011.49
5054.54
5090.05
5119.07
5142.62
5161.06
5176.97
5193.16
5209.64
5226.41
5243.48
5260.85
5278.55
5296.56
5314.9
5333.59
5352.62
5372.01
5391.76
5411.89
5432.4
5453.31
5474.62
5496.33
5518.48
5541.06
5564.08
5587.56
5611.5
5635.92
5660.82
5686.22
5712.13
5738.56
5765.52
5793.01
5821.05
5849.64
5878.79
5908.51
5938.81
5969.69
6001.14
6033.17
6065.78
6098.96
6132.69
6166.97
6201.78
6237.09
6272.87
6309.08
6345.67
6382.6
6419.78
6457.14
6494.59
6532.02
6569.32
6606.33
6642.9
6678.88
6714.06
6748.24
6781.2
6812.73
6842.57
6870.49
6896.23
6919.57
3470.44
3480.29
3496.34
3516.62
3539.6
3564.1
3589.51
3616.32