/*--------------------------------*- C++ -*----------------------------------*\
  =========                 |
  \\      /  F ield         | OpenFOAM: The Open Source CFD Toolbox
   \\    /   O peration     | Website:  https://openfoam.org
    \\  /    A nd           | Version:  7
     \\/     M anipulation  |
\*---------------------------------------------------------------------------*/
FoamFile
{
    version     2.0;
    format      ascii;
    class       volVectorField;
    location    "0.2";
    object      qAir;
}
// * * * * * * * * * * * * * * * * * * * * * * * * * * * * * * * * * * * * * //

dimensions      [0 -1 0 1 0 0 0];

internalField   nonuniform List<vector> 
1600
(
(46.6407 0.000700513 -0)
(46.6378 0.00172965 -0)
(46.631 0.00219452 -0)
(46.6207 0.00218577 -0)
(46.6086 0.00178023 -0)
(46.5966 0.00105986 -0)
(46.5866 0.000153144 -0)
(46.5801 -0.00075858 -0)
(46.578 -0.00146369 -0)
(46.5805 -0.00176819 -0)
(46.5866 -0.00156049 -0)
(46.5944 -0.000872678 -0)
(46.6015 9.25365e-05 -0)
(46.6058 0.000998218 -0)
(46.6059 0.00148261 -0)
(46.602 0.00131574 -0)
(46.5959 0.00053887 -0)
(46.5903 -0.000496997 -0)
(46.5878 -0.00125503 -0)
(46.5894 -0.00128607 -0)
(46.594 -0.000531086 -0)
(46.5988 0.00054986 -0)
(46.6008 0.00119358 -0)
(46.5987 0.000861968 -0)
(46.5944 -0.000252242 -0)
(46.5914 -0.00122009 -0)
(46.5923 -0.00107486 -0)
(46.5961 0.000206496 -0)
(46.5989 0.00139176 -0)
(46.5978 0.00116733 -0)
(46.5937 9.56471e-05 -0)
(46.5914 9.85133e-05 -0)
(46.5956 -0.000428812 -0)
(46.6055 -0.00756015 -0)
(46.6084 -0.0180247 -0)
(46.5907 -0.0123222 -0)
(46.5741 0.00851907 -0)
(46.5929 0.00621674 -0)
(46.6118 -0.0100836 -0)
(46.5959 -0.00701537 -0)
(46.6432 0.00102027 -0)
(46.6393 0.00253161 -0)
(46.6315 0.00321788 -0)
(46.6203 0.00316382 -0)
(46.6075 0.00247668 -0)
(46.595 0.0012956 -0)
(46.5848 -0.000158435 -0)
(46.5785 -0.00157829 -0)
(46.577 -0.00261282 -0)
(46.5804 -0.0029521 -0)
(46.5875 -0.00243956 -0)
(46.596 -0.001172 -0)
(46.6034 0.000466891 -0)
(46.6072 0.00188746 -0)
(46.6062 0.00249843 -0)
(46.601 0.00197969 -0)
(46.5941 0.000503351 -0)
(46.5885 -0.00124278 -0)
(46.587 -0.00232328 -0)
(46.5901 -0.00206285 -0)
(46.5959 -0.000547367 -0)
(46.6005 0.00125331 -0)
(46.6011 0.00200522 -0)
(46.5973 0.00101155 -0)
(46.5923 -0.00102307 -0)
(46.5906 -0.00232655 -0)
(46.5937 -0.00157896 -0)
(46.5986 0.000586599 -0)
(46.5999 0.00176739 -0)
(46.5965 0.000250329 -0)
(46.5926 -0.00174431 -0)
(46.5908 0.00139847 -0)
(46.5879 0.00928573 -0)
(46.5879 0.00683752 -0)
(46.6036 -0.0147394 -0)
(46.6173 -0.023124 -0)
(46.5927 0.00642179 -0)
(46.5743 0.0180811 -0)
(46.5986 -0.00119518 -0)
(46.6073 -0.00748838 -0)
(46.6443 0.000549921 -0)
(46.64 0.00140001 -0)
(46.6317 0.0018153 -0)
(46.62 0.00175001 -0)
(46.6067 0.00123777 -0)
(46.594 0.000377448 -0)
(46.5837 -0.000655864 -0)
(46.5776 -0.00161796 -0)
(46.5767 -0.00223583 -0)
(46.5807 -0.00228333 -0)
(46.5884 -0.00167563 -0)
(46.5973 -0.000545261 -0)
(46.6046 0.000747984 -0)
(46.6078 0.00170915 -0)
(46.606 0.00189895 -0)
(46.6 0.00116265 -0)
(46.5927 -0.000215458 -0)
(46.5875 -0.00155632 -0)
(46.587 -0.00208891 -0)
(46.5912 -0.00142269 -0)
(46.5973 7.89609e-05 -0)
(46.6014 0.00136592 -0)
(46.6005 0.00136466 -0)
(46.5957 -7.67576e-05 -0)
(46.5911 -0.0017678 -0)
(46.5909 -0.00202224 -0)
(46.5952 -0.000415248 -0)
(46.5994 0.00137848 -0)
(46.5986 0.00109503 -0)
(46.5943 -0.00181835 -0)
(46.5948 -0.00564761 -0)
(46.6024 -0.00628311 -0)
(46.601 0.00203396 -0)
(46.5815 0.0158142 -0)
(46.5784 0.0128316 -0)
(46.6119 -0.0124449 -0)
(46.6153 -0.0193924 -0)
(46.5853 0.00691489 -0)
(46.5863 0.0125347 -0)
(46.6 0.000510227 -0)
(46.6451 0.000424645 -0)
(46.6405 0.00111935 -0)
(46.6318 0.00150407 -0)
(46.6197 0.00148586 -0)
(46.6061 0.00105592 -0)
(46.5931 0.00028639 -0)
(46.5828 -0.000664474 -0)
(46.5769 -0.00156251 -0)
(46.5764 -0.00214027 -0)
(46.581 -0.00217507 -0)
(46.5892 -0.00158512 -0)
(46.5984 -0.000504687 -0)
(46.6056 0.000709467 -0)
(46.6083 0.0015747 -0)
(46.6056 0.00167621 -0)
(46.5989 0.000894023 -0)
(46.5914 -0.000453 -0)
(46.5866 -0.00167268 -0)
(46.5871 -0.00203004 -0)
(46.5923 -0.00123268 -0)
(46.5986 0.000232226 -0)
(46.6018 0.00126372 -0)
(46.5996 0.000907106 -0)
(46.5941 -0.000728928 -0)
(46.5904 -0.00224707 -0)
(46.592 -0.00204277 -0)
(46.5971 -0.000119542 -0)
(46.6001 0.00149769 -0)
(46.5967 0.00137601 -0)
(46.5897 0.00111582 -0)
(46.5882 0.00139184 -0)
(46.5985 -0.00318616 -0)
(46.61 -0.0125781 -0)
(46.5987 -0.00703142 -0)
(46.5753 0.0172314 -0)
(46.5851 0.0133529 -0)
(46.612 -0.0160106 -0)
(46.6062 -0.0110268 -0)
(46.5922 0.00144124 -0)
(46.5953 0.000703993 -0)
(46.6458 0.000374652 -0)
(46.641 0.00101228 -0)
(46.632 0.00139731 -0)
(46.6195 0.00141849 -0)
(46.6055 0.0010431 -0)
(46.5923 0.000323442 -0)
(46.5819 -0.000595198 -0)
(46.5762 -0.00148401 -0)
(46.5761 -0.00207437 -0)
(46.5812 -0.00213846 -0)
(46.59 -0.0015882 -0)
(46.5996 -0.000552568 -0)
(46.6066 0.000615285 -0)
(46.6088 0.00143578 -0)
(46.6053 0.00149985 -0)
(46.5979 0.000699848 -0)
(46.5901 -0.000626896 -0)
(46.5859 -0.00177579 -0)
(46.5874 -0.00202991 -0)
(46.5934 -0.0011633 -0)
(46.5998 0.000248497 -0)
(46.602 0.00108595 -0)
(46.5985 0.000535084 -0)
(46.5925 -0.00106751 -0)
(46.5898 -0.00228808 -0)
(46.593 -0.00187688 -0)
(46.5988 -0.000415545 -0)
(46.6009 -0.000386411 -0)
(46.5982 -0.00287778 -0)
(46.5943 -0.00333265 -0)
(46.5905 0.00402111 -0)
(46.5884 0.0108002 -0)
(46.5972 -0.00198681 -0)
(46.6113 -0.0206918 -0)
(46.5988 -0.00326977 -0)
(46.5787 0.0170389 -0)
(46.591 0.0071009 -0)
(46.6027 -0.0054814 -0)
(46.598 -0.00270224 -0)
(46.5979 -0.000739488 -0)
(46.6465 0.000356319 -0)
(46.6416 0.000975603 -0)
(46.6322 0.00137193 -0)
(46.6194 0.00142743 -0)
(46.605 0.00109497 -0)
(46.5915 0.000411543 -0)
(46.581 -0.000489419 -0)
(46.5754 -0.00138506 -0)
(46.5757 -0.00200613 -0)
(46.5815 -0.00211857 -0)
(46.5908 -0.00162432 -0)
(46.6006 -0.000641656 -0)
(46.6076 0.000484134 -0)
(46.6092 0.00127602 -0)
(46.6049 0.00132373 -0)
(46.5968 0.000521015 -0)
(46.5889 -0.000785495 -0)
(46.5852 -0.00188136 -0)
(46.5877 -0.00206261 -0)
(46.5946 -0.00116091 -0)
(46.6009 0.000163422 -0)
(46.6021 0.000765728 -0)
(46.5975 -1.50652e-05 -0)
(46.5913 -0.00152508 -0)
(46.5896 -0.00214201 -0)
(46.5938 -0.000851999 -0)
(46.5986 0.00135827 -0)
(46.5976 0.00168885 -0)
(46.5937 -0.00231308 -0)
(46.5966 -0.00843004 -0)
(46.6023 -0.00731266 -0)
(46.5925 0.00616635 -0)
(46.5785 0.0139896 -0)
(46.5974 -0.00345294 -0)
(46.6131 -0.016441 -0)
(46.5954 -0.00470035 -0)
(46.5895 0.00532492 -0)
(46.5964 0.00139028 -0)
(46.5969 0.000425771 -0)
(46.5982 -0.000303393 -0)
(46.6472 0.00035327 -0)
(46.6421 0.000975101 -0)
(46.6325 0.00139054 -0)
(46.6192 0.00147966 -0)
(46.6045 0.00118587 -0)
(46.5907 0.000533421 -0)
(46.5801 -0.000356099 -0)
(46.5746 -0.00126742 -0)
(46.5753 -0.00193226 -0)
(46.5816 -0.0021098 -0)
(46.5915 -0.00168837 -0)
(46.6017 -0.000769465 -0)
(46.6086 0.000314868 -0)
(46.6096 0.00109054 -0)
(46.6045 0.00113904 -0)
(46.5958 0.000343583 -0)
(46.5877 -0.000949462 -0)
(46.5846 -0.00201403 -0)
(46.5881 -0.00214122 -0)
(46.5957 -0.00118968 -0)
(46.6018 0.000115447 -0)
(46.6019 0.000556909 -0)
(46.5962 -0.000535127 -0)
(46.5904 -0.00238274 -0)
(46.5904 -0.00320244 -0)
(46.5965 -0.00201193 -0)
(46.6013 0.000381533 -0)
(46.5973 0.00275735 -0)
(46.5881 0.00416057 -0)
(46.5893 0.00166155 -0)
(46.6051 -0.00659676 -0)
(46.6097 -0.0104781 -0)
(46.5876 0.0029766 -0)
(46.5809 0.0147956 -0)
(46.5975 -0.000961444 -0)
(46.6004 -0.00724095 -0)
(46.5971 -0.00158124 -0)
(46.5978 -0.000141998 -0)
(46.5963 0.00106751 -0)
(46.5974 0.000328675 -0)
(46.6478 0.000357106 -0)
(46.6426 0.00099165 -0)
(46.6327 0.00143071 -0)
(46.6192 0.00155443 -0)
(46.6041 0.00129919 -0)
(46.5899 0.000677519 -0)
(46.5792 -0.000201863 -0)
(46.5738 -0.00113367 -0)
(46.5749 -0.00185275 -0)
(46.5817 -0.00211145 -0)
(46.5921 -0.00178077 -0)
(46.6026 -0.000938729 -0)
(46.6095 0.000102565 -0)
(46.61 0.000874365 -0)
(46.6042 0.000944331 -0)
(46.5947 0.000171 -0)
(46.5865 -0.00111712 -0)
(46.5841 -0.00219332 -0)
(46.5886 -0.00233474 -0)
(46.5968 -0.00138103 -0)
(46.6026 -2.46918e-05 -0)
(46.6015 0.000559108 -0)
(46.5945 -0.0003123 -0)
(46.5886 -0.00199173 -0)
(46.5899 -0.00296151 -0)
(46.5974 -0.00284167 -0)
(46.6034 -0.00340021 -0)
(46.6014 -0.00511543 -0)
(46.5926 -0.00330624 -0)
(46.5859 0.00462445 -0)
(46.5901 0.00692572 -0)
(46.6021 -0.00720947 -0)
(46.6038 -0.0152194 -0)
(46.5935 0.00318611 -0)
(46.591 0.00572102 -0)
(46.5948 0.00132335 -0)
(46.5966 -0.000373711 -0)
(46.5991 -0.00179582 -0)
(46.5974 -0.000358513 -0)
(46.5974 9.61732e-05 -0)
(46.6485 0.000362743 -0)
(46.6431 0.0010126 -0)
(46.633 0.00147628 -0)
(46.6191 0.00163549 -0)
(46.6036 0.00142084 -0)
(46.5892 0.000833081 -0)
(46.5783 -3.36931e-05 -0)
(46.573 -0.000987157 -0)
(46.5743 -0.00176804 -0)
(46.5817 -0.00212235 -0)
(46.5927 -0.00190071 -0)
(46.6036 -0.00115152 -0)
(46.6104 -0.000160032 -0)
(46.6104 0.000614815 -0)
(46.6038 0.00072653 -0)
(46.5937 2.71666e-06 -0)
(46.5853 -0.00125833 -0)
(46.5834 -0.00234785 -0)
(46.5889 -0.00255717 -0)
(46.598 -0.0017453 -0)
(46.6037 -0.000583422 -0)
(46.6016 -9.13849e-05 -0)
(46.5937 -0.000673742 -0)
(46.5877 -0.00146384 -0)
(46.5896 -0.000869544 -0)
(46.5961 0.00133288 -0)
(46.599 0.00196553 -0)
(46.5974 -0.00288449 -0)
(46.5978 -0.00942264 -0)
(46.5995 -0.00582515 -0)
(46.5933 0.00746506 -0)
(46.5876 0.00855088 -0)
(46.598 -0.00568363 -0)
(46.6018 -0.00465714 -0)
(46.5957 -0.00144688 -0)
(46.5943 0.00125072 -0)
(46.5939 0.0013898 -0)
(46.5978 -0.00102574 -0)
(46.5982 -0.000880061 -0)
(46.5978 -0.000231294 -0)
(46.6492 0.000366755 -0)
(46.6437 0.00102888 -0)
(46.6334 0.00151485 -0)
(46.6191 0.00170941 -0)
(46.6033 0.00153819 -0)
(46.5885 0.00098961 -0)
(46.5773 0.000140859 -0)
(46.5721 -0.000832195 -0)
(46.5737 -0.00167939 -0)
(46.5816 -0.00214138 -0)
(46.5931 -0.00204567 -0)
(46.6044 -0.00140524 -0)
(46.6112 -0.000472794 -0)
(46.6109 0.000304386 -0)
(46.6035 0.000462739 -0)
(46.5927 -0.000204069 -0)
(46.5842 -0.00142182 -0)
(46.5828 -0.00247628 -0)
(46.5892 -0.00264355 -0)
(46.5988 -0.00182703 -0)
(46.6043 -0.000846774 -0)
(46.6014 -0.000864896 -0)
(46.5932 -0.00221236 -0)
(46.5884 -0.00373664 -0)
(46.5927 -0.00345665 -0)
(46.6003 -0.00019275 -0)
(46.5992 0.00444205 -0)
(46.59 0.00539785 -0)
(46.5897 -0.000784432 -0)
(46.6028 -0.00763655 -0)
(46.6045 -0.00444849 -0)
(46.5889 0.00383169 -0)
(46.5906 0.00306291 -0)
(46.5977 -0.00042954 -0)
(46.597 -0.0042054 -0)
(46.5976 -0.00210833 -0)
(46.5943 0.000691459 -0)
(46.5968 9.90326e-07 -0)
(46.5982 -0.000442753 -0)
(46.5981 -0.000252104 -0)
(46.6499 0.000366651 -0)
(46.6443 0.00103364 -0)
(46.6337 0.00153639 -0)
(46.6191 0.00176441 -0)
(46.6029 0.0016393 -0)
(46.5878 0.00113655 -0)
(46.5764 0.000313979 -0)
(46.5712 -0.000673166 -0)
(46.573 -0.00158819 -0)
(46.5813 -0.00216853 -0)
(46.5934 -0.00221604 -0)
(46.6051 -0.00170032 -0)
(46.6121 -0.00083173 -0)
(46.6114 -4.22246e-05 -0)
(46.6033 0.000176603 -0)
(46.5918 -0.000441824 -0)
(46.5831 -0.0016731 -0)
(46.5822 -0.00278399 -0)
(46.5896 -0.00293029 -0)
(46.5998 -0.00186003 -0)
(46.6047 -0.000396877 -0)
(46.6002 -9.30986e-06 -0)
(46.5908 -0.00145702 -0)
(46.5865 -0.00385676 -0)
(46.5931 -0.00552467 -0)
(46.604 -0.0054636 -0)
(46.6046 -0.00332324 -0)
(46.5921 0.00057899 -0)
(46.5848 0.00319385 -0)
(46.5958 0.000440069 -0)
(46.6048 -0.00516162 -0)
(46.5951 -0.00539439 -0)
(46.5937 0.000355401 -0)
(46.5946 0.00314764 -0)
(46.594 -0.00107125 -0)
(46.5992 -0.00217953 -0)
(46.5961 -7.5085e-05 -0)
(46.5967 0.000376545 -0)
(46.5979 1.2571e-05 -0)
(46.598 -0.000123079 -0)
(46.6506 0.000360534 -0)
(46.6449 0.00102146 -0)
(46.6341 0.00153254 -0)
(46.6192 0.0017899 -0)
(46.6026 0.00171231 -0)
(46.5871 0.00126245 -0)
(46.5755 0.000476835 -0)
(46.5702 -0.000514157 -0)
(46.5722 -0.00149312 -0)
(46.581 -0.00219949 -0)
(46.5936 -0.00241059 -0)
(46.6058 -0.00204585 -0)
(46.6129 -0.00125691 -0)
(46.6119 -0.000439974 -0)
(46.6031 -0.000105291 -0)
(46.5909 -0.000601959 -0)
(46.5818 -0.00182363 -0)
(46.5815 -0.00312066 -0)
(46.5901 -0.00359355 -0)
(46.6013 -0.00271776 -0)
(46.6061 -0.00093401 -0)
(46.6003 0.000431753 -0)
(46.5893 0.000325033 -0)
(46.5844 -0.00074421 -0)
(46.5911 -0.00143291 -0)
(46.6025 -0.00205655 -0)
(46.6052 -0.00404817 -0)
(46.5965 -0.00536651 -0)
(46.5896 -0.00165996 -0)
(46.5944 0.00402651 -0)
(46.5987 0.00238516 -0)
(46.5945 -0.00446011 -0)
(46.5991 -0.00301168 -0)
(46.5963 0.00243148 -0)
(46.5916 0.00154498 -0)
(46.5986 -0.000481454 -0)
(46.5969 -7.6736e-05 -0)
(46.5969 0.000335926 -0)
(46.5977 0.000148525 -0)
(46.5978 -1.86467e-05 -0)
(46.6513 0.000346949 -0)
(46.6455 0.000988065 -0)
(46.6345 0.00149647 -0)
(46.6193 0.00177666 -0)
(46.6024 0.00174594 -0)
(46.5865 0.00135483 -0)
(46.5747 0.000617798 -0)
(46.5692 -0.000362604 -0)
(46.5713 -0.00139356 -0)
(46.5804 -0.00222329 -0)
(46.5936 -0.00261098 -0)
(46.6063 -0.00242833 -0)
(46.6137 -0.00176109 -0)
(46.6125 -0.000947436 -0)
(46.6031 -0.000480056 -0)
(46.5901 -0.000753824 -0)
(46.5805 -0.00177199 -0)
(46.5804 -0.00303795 -0)
(46.59 -0.00379614 -0)
(46.6024 -0.00352665 -0)
(46.6078 -0.00238294 -0)
(46.6015 -0.00122067 -0)
(46.5896 -0.000878896 -0)
(46.5847 -0.000921541 -0)
(46.5918 0.000299646 -0)
(46.6013 0.00259387 -0)
(46.6013 0.0020682 -0)
(46.5945 -0.00282249 -0)
(46.5942 -0.0050266 -0)
(46.5999 0.0008711 -0)
(46.5963 0.00560573 -0)
(46.5897 0.000544487 -0)
(46.6006 -0.00252127 -0)
(46.5991 0.000621463 -0)
(46.5911 0.00165941 -0)
(46.5976 0.000426679 -0)
(46.5969 2.7529e-05 -0)
(46.5969 0.000143375 -0)
(46.5976 9.25459e-05 -0)
(46.5977 2.65122e-05 -0)
(46.6519 0.000324854 -0)
(46.646 0.000930226 -0)
(46.6349 0.00142265 -0)
(46.6195 0.00171695 -0)
(46.6022 0.00173047 -0)
(46.586 0.00140237 -0)
(46.5738 0.000724574 -0)
(46.5682 -0.000230393 -0)
(46.5704 -0.00129809 -0)
(46.5797 -0.00223985 -0)
(46.5934 -0.00280058 -0)
(46.6066 -0.00280805 -0)
(46.6144 -0.00228686 -0)
(46.6132 -0.00152117 -0)
(46.6033 -0.000981964 -0)
(46.5896 -0.001083 -0)
(46.5796 -0.00186522 -0)
(46.5795 -0.00286447 -0)
(46.5896 -0.00339394 -0)
(46.6027 -0.00311954 -0)
(46.6085 -0.00240968 -0)
(46.6018 -0.00207574 -0)
(46.5896 -0.00264878 -0)
(46.5856 -0.0035177 -0)
(46.5947 -0.002688 -0)
(46.6042 0.00101661 -0)
(46.5998 0.0042674 -0)
(46.5894 0.00178827 -0)
(46.5933 -0.00363997 -0)
(46.605 -0.00260981 -0)
(46.5984 0.00321709 -0)
(46.5863 0.00249624 -0)
(46.5992 -0.000940196 -0)
(46.6005 -0.000419832 -0)
(46.5914 0.00069872 -0)
(46.597 0.000371987 -0)
(46.5966 -1.37933e-05 -0)
(46.5969 -1.17867e-05 -0)
(46.5976 3.02997e-05 -0)
(46.5978 4.55589e-05 -0)
(46.6526 0.000293724 -0)
(46.6466 0.000846031 -0)
(46.6353 0.00130702 -0)
(46.6196 0.00160391 -0)
(46.6021 0.00165667 -0)
(46.5855 0.00139504 -0)
(46.573 0.000788231 -0)
(46.5672 -0.000124499 -0)
(46.5693 -0.00121333 -0)
(46.5789 -0.00225929 -0)
(46.593 -0.00299443 -0)
(46.6068 -0.00319478 -0)
(46.615 -0.0028105 -0)
(46.6138 -0.00206686 -0)
(46.6036 -0.00143542 -0)
(46.5892 -0.0014066 -0)
(46.5788 -0.00211815 -0)
(46.5789 -0.00308677 -0)
(46.5897 -0.00341145 -0)
(46.6034 -0.00255548 -0)
(46.6089 -0.00109349 -0)
(46.6012 -0.000443949 -0)
(46.5882 -0.00154864 -0)
(46.5847 -0.00373855 -0)
(46.5964 -0.00479506 -0)
(46.6083 -0.00256666 -0)
(46.6021 0.00179897 -0)
(46.5866 0.00300594 -0)
(46.5898 -0.000978696 -0)
(46.6067 -0.00320663 -0)
(46.6014 0.000204377 -0)
(46.5855 0.00175517 -0)
(46.5977 -6.1725e-05 -0)
(46.6007 -0.000611192 -0)
(46.5919 6.13258e-06 -0)
(46.5969 0.000138454 -0)
(46.5965 -1.50646e-05 -0)
(46.597 -2.10685e-05 -0)
(46.5977 4.10633e-05 -0)
(46.5978 7.11881e-05 -0)
(46.6531 0.000253637 -0)
(46.647 0.000735398 -0)
(46.6356 0.00114818 -0)
(46.6198 0.00143263 -0)
(46.602 0.00151458 -0)
(46.5851 0.00131893 -0)
(46.5723 0.000795772 -0)
(46.5662 -4.96052e-05 -0)
(46.5682 -0.00112988 -0)
(46.578 -0.00226105 -0)
(46.5924 -0.00317848 -0)
(46.6068 -0.0036087 -0)
(46.6155 -0.00340201 -0)
(46.6146 -0.00267435 -0)
(46.604 -0.00185319 -0)
(46.5889 -0.00152675 -0)
(46.5779 -0.00207968 -0)
(46.5782 -0.00325739 -0)
(46.5901 -0.00403274 -0)
(46.6051 -0.00323981 -0)
(46.6106 -0.000844076 -0)
(46.6014 0.00145385 -0)
(46.5863 0.00156134 -0)
(46.5823 -0.000745748 -0)
(46.5958 -0.00328614 -0)
(46.6108 -0.00331989 -0)
(46.6054 -0.000302606 -0)
(46.5866 0.00238829 -0)
(46.587 0.000965585 -0)
(46.6062 -0.00172409 -0)
(46.6033 -0.000794063 -0)
(46.5861 0.000861097 -0)
(46.5968 0.000392256 -0)
(46.6006 -0.000246615 -0)
(46.5922 -9.11028e-05 -0)
(46.597 0.000101644 -0)
(46.5965 8.38467e-05 -0)
(46.597 6.76523e-05 -0)
(46.5977 9.56694e-05 -0)
(46.5978 0.000110942 -0)
(46.6535 0.000205151 -0)
(46.6474 0.000599829 -0)
(46.636 0.000948077 -0)
(46.62 0.00120333 -0)
(46.602 0.00129872 -0)
(46.5848 0.00115913 -0)
(46.5717 0.000722968 -0)
(46.5652 -3.15398e-05 -0)
(46.5671 -0.00105844 -0)
(46.5769 -0.00221995 -0)
(46.5917 -0.00328149 -0)
(46.6066 -0.00395326 -0)
(46.6159 -0.00399953 -0)
(46.6154 -0.00339168 -0)
(46.6047 -0.00241854 -0)
(46.589 -0.00164742 -0)
(46.577 -0.00167798 -0)
(46.5769 -0.00271138 -0)
(46.5898 -0.00410777 -0)
(46.6066 -0.00442863 -0)
(46.6136 -0.00252194 -0)
(46.6036 0.000901875 -0)
(46.586 0.00327175 -0)
(46.5799 0.00266942 -0)
(46.5938 0.000106024 -0)
(46.6113 -0.00149968 -0)
(46.6078 -0.000380383 -0)
(46.5879 0.00198964 -0)
(46.5857 0.00216388 -0)
(46.605 0.000224643 -0)
(46.604 -0.000259992 -0)
(46.5867 0.000616981 -0)
(46.5966 0.00069587 -0)
(46.6003 0.000234714 -0)
(46.5922 9.55453e-05 -0)
(46.5971 0.00015739 -0)
(46.5964 0.000157908 -0)
(46.597 0.000131075 -0)
(46.5977 0.000134282 -0)
(46.5978 0.000155004 -0)
(46.6539 0.000149249 -0)
(46.6478 0.000441574 -0)
(46.6362 0.000709682 -0)
(46.6202 0.000919613 -0)
(46.602 0.00101196 -0)
(46.5846 0.000913354 -0)
(46.5711 0.000555459 -0)
(46.5644 -0.000102366 -0)
(46.5661 -0.00104632 -0)
(46.5757 -0.00217987 -0)
(46.5907 -0.00330757 -0)
(46.6061 -0.00415486 -0)
(46.6161 -0.00444672 -0)
(46.6161 -0.0040414 -0)
(46.6057 -0.00306306 -0)
(46.5896 -0.00193913 -0)
(46.5768 -0.00127966 -0)
(46.5757 -0.00159789 -0)
(46.5884 -0.00288833 -0)
(46.6066 -0.00422956 -0)
(46.6159 -0.00403755 -0)
(46.6071 -0.00150122 -0)
(46.5881 0.00196354 -0)
(46.5791 0.00365016 -0)
(46.5917 0.00257673 -0)
(46.6103 0.000644849 -0)
(46.6089 0.000288003 -0)
(46.5892 0.00165633 -0)
(46.5853 0.00242412 -0)
(46.6038 0.00141072 -0)
(46.6037 0.000455999 -0)
(46.587 0.000548971 -0)
(46.5965 0.000663669 -0)
(46.6 0.000394902 -0)
(46.5921 0.000167155 -0)
(46.5971 0.000120172 -0)
(46.5964 0.000118974 -0)
(46.597 0.000118131 -0)
(46.5977 0.000143019 -0)
(46.5978 0.000197833 -0)
(46.6541 8.76439e-05 -0)
(46.648 0.000264451 -0)
(46.6364 0.000436161 -0)
(46.6203 0.000582527 -0)
(46.602 0.000654683 -0)
(46.5844 0.00058421 -0)
(46.5706 0.000298887 -0)
(46.5636 -0.000258228 -0)
(46.565 -0.001103 -0)
(46.5746 -0.00217666 -0)
(46.5897 -0.00331933 -0)
(46.6054 -0.00427659 -0)
(46.616 -0.00475857 -0)
(46.6168 -0.00455136 -0)
(46.6068 -0.00364991 -0)
(46.5908 -0.00233759 -0)
(46.5774 -0.00113069 -0)
(46.5753 -0.00058979 -0)
(46.5871 -0.00106302 -0)
(46.6055 -0.00235224 -0)
(46.6163 -0.00343413 -0)
(46.6096 -0.00290685 -0)
(46.5911 -0.000484008 -0)
(46.5805 0.00210856 -0)
(46.5908 0.00279253 -0)
(46.609 0.00164491 -0)
(46.6088 0.000621951 -0)
(46.59 0.000928904 -0)
(46.5854 0.00161659 -0)
(46.603 0.00132772 -0)
(46.6031 0.000527818 -0)
(46.5869 0.000218193 -0)
(46.5964 0.000232653 -0)
(46.5998 0.000141857 -0)
(46.592 1.13009e-05 -0)
(46.597 -1.58098e-05 -0)
(46.5964 2.93988e-05 -0)
(46.597 9.20964e-05 -0)
(46.5978 0.000165272 -0)
(46.5979 0.000249208 -0)
(46.6542 2.25912e-05 -0)
(46.6481 7.50412e-05 -0)
(46.6366 0.000135741 -0)
(46.6204 0.000196051 -0)
(46.602 0.000221758 -0)
(46.5842 0.000158263 -0)
(46.5703 -6.02047e-05 -0)
(46.563 -0.000499178 -0)
(46.5641 -0.00120386 -0)
(46.5735 -0.00216263 -0)
(46.5886 -0.00326541 -0)
(46.6046 -0.00429018 -0)
(46.6158 -0.0049431 -0)
(46.6173 -0.00495113 -0)
(46.608 -0.00418932 -0)
(46.5922 -0.00280207 -0)
(46.5786 -0.00122094 -0)
(46.5758 8.96623e-07 -0)
(46.5867 0.00043597 -0)
(46.6043 -5.45955e-05 -0)
(46.6153 -0.00115846 -0)
(46.6101 -0.00195842 -0)
(46.5931 -0.00143991 -0)
(46.5824 0.000243996 -0)
(46.5912 0.00154885 -0)
(46.6082 0.00138139 -0)
(46.6081 0.000453286 -0)
(46.5902 4.14741e-05 -0)
(46.5857 0.000296206 -0)
(46.6027 0.000366274 -0)
(46.6026 -1.98874e-05 -0)
(46.5867 -0.00031616 -0)
(46.5964 -0.000311781 -0)
(46.5997 -0.000231341 -0)
(46.5919 -0.00017381 -0)
(46.5971 -8.68915e-05 -0)
(46.5965 3.51366e-05 -0)
(46.5971 0.000154933 -0)
(46.5979 0.000252811 -0)
(46.598 0.000323548 -0)
(46.6542 -4.43116e-05 -0)
(46.6481 -0.000120624 -0)
(46.6366 -0.000178969 -0)
(46.6204 -0.000222913 -0)
(46.6019 -0.000274783 -0)
(46.5841 -0.000369803 -0)
(46.57 -0.000552549 -0)
(46.5625 -0.000876597 -0)
(46.5634 -0.00139808 -0)
(46.5725 -0.00214902 -0)
(46.5876 -0.00308928 -0)
(46.6038 -0.00406729 -0)
(46.6154 -0.00482787 -0)
(46.6175 -0.00507543 -0)
(46.609 -0.00457782 -0)
(46.5937 -0.00330397 -0)
(46.5802 -0.0015421 -0)
(46.577 0.000160178 -0)
(46.5871 0.00129011 -0)
(46.6039 0.0016166 -0)
(46.6144 0.00116756 -0)
(46.6094 0.000247906 -0)
(46.5933 -0.000429733 -0)
(46.5835 -0.000240792 -0)
(46.5919 0.000441058 -0)
(46.6079 0.000612769 -0)
(46.6075 4.87998e-05 -0)
(46.5899 -0.000591992 -0)
(46.5858 -0.000747533 -0)
(46.6027 -0.000624545 -0)
(46.6024 -0.000634591 -0)
(46.5866 -0.000685953 -0)
(46.5965 -0.000568989 -0)
(46.5999 -0.000340958 -0)
(46.5921 -0.000121443 -0)
(46.5972 6.68248e-05 -0)
(46.5967 0.000227297 -0)
(46.5972 0.000344847 -0)
(46.5979 0.000408354 -0)
(46.5981 0.000418501 -0)
(46.6541 -0.000112252 -0)
(46.648 -0.00032064 -0)
(46.6365 -0.000502164 -0)
(46.6203 -0.000658066 -0)
(46.6018 -0.000805422 -0)
(46.5839 -0.000965473 -0)
(46.5698 -0.00115882 -0)
(46.5622 -0.00141146 -0)
(46.5629 -0.00176164 -0)
(46.5718 -0.0022528 -0)
(46.5867 -0.00290092 -0)
(46.6029 -0.00364705 -0)
(46.6148 -0.00433028 -0)
(46.6175 -0.0047079 -0)
(46.6097 -0.00451741 -0)
(46.5952 -0.00358106 -0)
(46.582 -0.00196387 -0)
(46.5786 -7.65129e-05 -0)
(46.5881 0.00149818 -0)
(46.6042 0.00238446 -0)
(46.614 0.00253666 -0)
(46.6085 0.00204672 -0)
(46.5926 0.00117306 -0)
(46.5833 0.000447551 -0)
(46.592 0.000182189 -0)
(46.6078 6.06058e-05 -0)
(46.6069 -0.000293943 -0)
(46.5894 -0.000820506 -0)
(46.5856 -0.00111511 -0)
(46.6028 -0.00102167 -0)
(46.6025 -0.00079303 -0)
(46.5868 -0.000577755 -0)
(46.5967 -0.000316556 -0)
(46.6002 -1.05832e-05 -0)
(46.5924 0.000258155 -0)
(46.5974 0.00044521 -0)
(46.5968 0.000552269 -0)
(46.5973 0.000588811 -0)
(46.5979 0.000566899 -0)
(46.598 0.000504908 -0)
(46.6538 -0.000179683 -0)
(46.6477 -0.000522729 -0)
(46.6362 -0.000834462 -0)
(46.6201 -0.00110971 -0)
(46.6016 -0.00135872 -0)
(46.5837 -0.00159339 -0)
(46.5695 -0.0018188 -0)
(46.5619 -0.00203821 -0)
(46.5625 -0.00226328 -0)
(46.5714 -0.00251825 -0)
(46.5862 -0.00283168 -0)
(46.6023 -0.00321036 -0)
(46.6143 -0.00360284 -0)
(46.6173 -0.00387858 -0)
(46.6101 -0.00384222 -0)
(46.5963 -0.00328547 -0)
(46.5837 -0.00210043 -0)
(46.5805 -0.000447968 -0)
(46.5895 0.00120232 -0)
(46.6049 0.00235281 -0)
(46.614 0.00281636 -0)
(46.608 0.00266527 -0)
(46.5917 0.00202036 -0)
(46.5825 0.00112641 -0)
(46.5915 0.00034503 -0)
(46.6074 -0.000156218 -0)
(46.6066 -0.000462714 -0)
(46.589 -0.000728701 -0)
(46.5856 -0.000870702 -0)
(46.603 -0.000712326 -0)
(46.6029 -0.000344019 -0)
(46.5871 3.73167e-05 -0)
(46.5971 0.000365359 -0)
(46.6005 0.000631815 -0)
(46.5926 0.000803989 -0)
(46.5975 0.000863236 -0)
(46.5968 0.00082969 -0)
(46.5972 0.000740548 -0)
(46.5979 0.000633539 -0)
(46.5979 0.000543796 -0)
(46.6534 -0.000244899 -0)
(46.6473 -0.000720818 -0)
(46.6359 -0.00116878 -0)
(46.6197 -0.00157659 -0)
(46.6013 -0.00194035 -0)
(46.5835 -0.00225497 -0)
(46.5693 -0.00250995 -0)
(46.5617 -0.00269541 -0)
(46.5624 -0.00281087 -0)
(46.5713 -0.00286465 -0)
(46.586 -0.00287193 -0)
(46.6021 -0.00285636 -0)
(46.6141 -0.00283927 -0)
(46.6173 -0.00280738 -0)
(46.6103 -0.00268455 -0)
(46.5969 -0.00233722 -0)
(46.5849 -0.00162505 -0)
(46.582 -0.000517542 -0)
(46.5909 0.000766735 -0)
(46.6058 0.00180554 -0)
(46.6143 0.0022828 -0)
(46.6077 0.002199 -0)
(46.5911 0.00171866 -0)
(46.5816 0.00100027 -0)
(46.5908 0.000238479 -0)
(46.607 -0.000320993 -0)
(46.6064 -0.000519734 -0)
(46.589 -0.000460486 -0)
(46.5857 -0.000274692 -0)
(46.6033 6.04898e-05 -0)
(46.6033 0.000505402 -0)
(46.5875 0.000904615 -0)
(46.5973 0.00115543 -0)
(46.6006 0.00124847 -0)
(46.5926 0.00120524 -0)
(46.5974 0.00106026 -0)
(46.5967 0.000867226 -0)
(46.5971 0.000685132 -0)
(46.5977 0.0005613 -0)
(46.5978 0.000525333 -0)
(46.6528 -0.000308524 -0)
(46.6468 -0.000912577 -0)
(46.6354 -0.00149363 -0)
(46.6193 -0.00203953 -0)
(46.6009 -0.00253375 -0)
(46.5832 -0.00294638 -0)
(46.5691 -0.00323936 -0)
(46.5616 -0.00338298 -0)
(46.5624 -0.0033715 -0)
(46.5713 -0.00321879 -0)
(46.5862 -0.002942 -0)
(46.6024 -0.00256309 -0)
(46.6143 -0.00212711 -0)
(46.6175 -0.00169745 -0)
(46.6106 -0.00131419 -0)
(46.5973 -0.000959897 -0)
(46.5855 -0.00056509 -0)
(46.5828 -5.02302e-05 -0)
(46.5919 0.000577599 -0)
(46.6064 0.0011282 -0)
(46.6144 0.00132681 -0)
(46.6074 0.00108939 -0)
(46.5905 0.000599475 -0)
(46.581 7.90296e-05 -0)
(46.5902 -0.000365551 -0)
(46.6067 -0.000620791 -0)
(46.6064 -0.000519472 -0)
(46.5893 -9.4129e-05 -0)
(46.5861 0.000442449 -0)
(46.6038 0.000956435 -0)
(46.6037 0.00138352 -0)
(46.5878 0.00163543 -0)
(46.5974 0.00165755 -0)
(46.6005 0.00148194 -0)
(46.5924 0.00119125 -0)
(46.5972 0.000874675 -0)
(46.5965 0.000610066 -0)
(46.5969 0.000451411 -0)
(46.5977 0.000419009 -0)
(46.5979 0.000498697 -0)
(46.6522 -0.000372734 -0)
(46.6462 -0.00110376 -0)
(46.6347 -0.00181046 -0)
(46.6187 -0.00248362 -0)
(46.6004 -0.00310323 -0)
(46.5828 -0.00362195 -0)
(46.5689 -0.00397149 -0)
(46.5616 -0.00408997 -0)
(46.5625 -0.00395155 -0)
(46.5717 -0.00357558 -0)
(46.5866 -0.0030051 -0)
(46.603 -0.00228456 -0)
(46.615 -0.00147106 -0)
(46.6181 -0.000658596 -0)
(46.6111 3.70928e-05 -0)
(46.5977 0.000526973 -0)
(46.5858 0.000778614 -0)
(46.5831 0.000825247 -0)
(46.5921 0.000752177 -0)
(46.6065 0.000605146 -0)
(46.6142 0.000307818 -0)
(46.607 -0.000205056 -0)
(46.5901 -0.00077905 -0)
(46.5806 -0.00113907 -0)
(46.5901 -0.00117655 -0)
(46.6068 -0.000928832 -0)
(46.6069 -0.000389487 -0)
(46.5899 0.000375418 -0)
(46.5867 0.00113507 -0)
(46.6043 0.00167983 -0)
(46.604 0.00192955 -0)
(46.5878 0.00188105 -0)
(46.5972 0.00158439 -0)
(46.6002 0.00115006 -0)
(46.592 0.000714644 -0)
(46.5969 0.000389688 -0)
(46.5963 0.00023364 -0)
(46.5969 0.0002468 -0)
(46.5978 0.000379864 -0)
(46.5981 0.000550301 -0)
(46.6514 -0.000438207 -0)
(46.6454 -0.00129982 -0)
(46.634 -0.00213143 -0)
(46.618 -0.00291842 -0)
(46.5998 -0.00363743 -0)
(46.5823 -0.00423653 -0)
(46.5686 -0.00463341 -0)
(46.5616 -0.0047417 -0)
(46.5629 -0.00450508 -0)
(46.5723 -0.00392516 -0)
(46.5875 -0.00306166 -0)
(46.6039 -0.00200424 -0)
(46.616 -0.000851571 -0)
(46.619 0.000277768 -0)
(46.6118 0.00123472 -0)
(46.5981 0.00186643 -0)
(46.5858 0.00205878 -0)
(46.5828 0.00177754 -0)
(46.5916 0.00111775 -0)
(46.606 0.000283216 -0)
(46.6136 -0.00055961 -0)
(46.6063 -0.00134311 -0)
(46.5896 -0.00193534 -0)
(46.5806 -0.0020907 -0)
(46.5904 -0.00170916 -0)
(46.6075 -0.000944135 -0)
(46.6077 4.28432e-06 -0)
(46.5908 0.000955631 -0)
(46.5874 0.00168341 -0)
(46.6046 0.00200504 -0)
(46.6039 0.00189652 -0)
(46.5874 0.00147053 -0)
(46.5967 0.000902514 -0)
(46.5997 0.000377328 -0)
(46.5916 3.96896e-05 -0)
(46.5967 -4.75713e-05 -0)
(46.5963 8.57115e-05 -0)
(46.5971 0.000340306 -0)
(46.598 0.000588863 -0)
(46.5982 0.000717002 -0)
(46.6504 -0.000504023 -0)
(46.6445 -0.00149925 -0)
(46.6331 -0.00246066 -0)
(46.6172 -0.0033587 -0)
(46.5991 -0.00415504 -0)
(46.5818 -0.00479201 -0)
(46.5684 -0.00518912 -0)
(46.5617 -0.00526031 -0)
(46.5634 -0.00493702 -0)
(46.5731 -0.00419575 -0)
(46.5886 -0.0030832 -0)
(46.6052 -0.00171706 -0)
(46.6173 -0.000258155 -0)
(46.6202 0.00111824 -0)
(46.6126 0.00223295 -0)
(46.5985 0.00291309 -0)
(46.5857 0.00301713 -0)
(46.5822 0.00247916 -0)
(46.5906 0.00138735 -0)
(46.6048 3.1214e-05 -0)
(46.6126 -0.00122373 -0)
(46.6056 -0.00213557 -0)
(46.5893 -0.00257128 -0)
(46.5809 -0.00239569 -0)
(46.5912 -0.00160074 -0)
(46.6085 -0.000446013 -0)
(46.6088 0.000701299 -0)
(46.5916 0.00155442 -0)
(46.5878 0.00193119 -0)
(46.6045 0.00177857 -0)
(46.6034 0.0012182 -0)
(46.5868 0.000502324 -0)
(46.5961 -9.9584e-05 -0)
(46.5993 -0.000399102 -0)
(46.5916 -0.00034075 -0)
(46.5969 -4.1356e-06 -0)
(46.5967 0.000440622 -0)
(46.5974 0.000807811 -0)
(46.5982 0.000968901 -0)
(46.5982 0.000896795 -0)
(46.6494 -0.000570153 -0)
(46.6434 -0.00169864 -0)
(46.6321 -0.00279021 -0)
(46.6163 -0.0037991 -0)
(46.5984 -0.00466453 -0)
(46.5812 -0.00531101 -0)
(46.5682 -0.00565821 -0)
(46.5619 -0.00563467 -0)
(46.564 -0.00518893 -0)
(46.5741 -0.00429908 -0)
(46.5899 -0.00299559 -0)
(46.6067 -0.00139168 -0)
(46.6188 0.000311162 -0)
(46.6215 0.00186281 -0)
(46.6136 0.00302487 -0)
(46.5989 0.00361392 -0)
(46.5854 0.00351827 -0)
(46.5812 0.00271356 -0)
(46.5892 0.00132171 -0)
(46.6034 -0.000316244 -0)
(46.6115 -0.00171708 -0)
(46.605 -0.00250892 -0)
(46.5893 -0.00256729 -0)
(46.5816 -0.00192739 -0)
(46.5924 -0.000764851 -0)
(46.6098 0.000543216 -0)
(46.6097 0.0015465 -0)
(46.592 0.001949 -0)
(46.5876 0.00169914 -0)
(46.6039 0.000964423 -0)
(46.6026 6.80197e-05 -0)
(46.5861 -0.000627437 -0)
(46.5958 -0.00086702 -0)
(46.5994 -0.000601968 -0)
(46.592 9.49921e-06 -0)
(46.5975 0.000690296 -0)
(46.5971 0.00117358 -0)
(46.5976 0.00131815 -0)
(46.5981 0.0011605 -0)
(46.5979 0.00088711 -0)
(46.6482 -0.000638309 -0)
(46.6422 -0.00189934 -0)
(46.631 -0.00311406 -0)
(46.6153 -0.00422253 -0)
(46.5976 -0.00514627 -0)
(46.5808 -0.0057886 -0)
(46.5681 -0.00606007 -0)
(46.5622 -0.00589735 -0)
(46.5647 -0.0052748 -0)
(46.5753 -0.00420331 -0)
(46.5915 -0.00273085 -0)
(46.6085 -0.000968051 -0)
(46.6205 0.000875108 -0)
(46.6229 0.00249829 -0)
(46.6144 0.003594 -0)
(46.599 0.00395452 -0)
(46.5848 0.00352697 -0)
(46.58 0.00240354 -0)
(46.5876 0.000813375 -0)
(46.6018 -0.000846791 -0)
(46.6104 -0.00206293 -0)
(46.6048 -0.00244221 -0)
(46.5899 -0.00193113 -0)
(46.5827 -0.000777686 -0)
(46.5937 0.000609612 -0)
(46.6108 0.00174571 -0)