/*--------------------------------*- C++ -*----------------------------------*\
  =========                 |
  \\      /  F ield         | OpenFOAM: The Open Source CFD Toolbox
   \\    /   O peration     | Website:  https://openfoam.org
    \\  /    A nd           | Version:  7
     \\/     M anipulation  |
\*---------------------------------------------------------------------------*/
FoamFile
{
    version     2.0;
    format      ascii;
    class       volVectorField;
    location    "0.2/solid";
    object      qSolid;
}
// * * * * * * * * * * * * * * * * * * * * * * * * * * * * * * * * * * * * * //

dimensions      [0 -1 0 1 0 0 0];

internalField   nonuniform List<vector> 
1600
(
(35.4082 -0.0206898 -0)
(35.4069 -0.0107806 -0)
(35.409 -0.0106031 -0)
(35.4198 -0.0151513 -0)
(35.405 -0.00334338 -0)
(35.407 0.00194788 -0)
(35.4135 0.00244317 -0)
(35.4147 0.00430326 -0)
(35.4271 -0.00244766 -0)
(35.4212 -0.00359691 -0)
(35.4138 0.0035072 -0)
(35.4262 0.00185444 -0)
(35.4255 -0.00534252 -0)
(35.4141 -0.00415586 -0)
(35.4204 0.00291069 -0)
(35.4346 0.0045073 -0)
(35.4316 -0.000992395 -0)
(35.4162 -0.0058134 -0)
(35.411 -0.00456541 -0)
(35.4228 0.000426082 -0)
(35.4361 0.00360418 -0)
(35.4355 0.0024047 -0)
(35.4214 -0.00131505 -0)
(35.407 -0.00410068 -0)
(35.4034 -0.00400261 -0)
(35.4109 -0.00152339 -0)
(35.4211 0.00138933 -0)
(35.4245 0.00294304 -0)
(35.4176 0.00253022 -0)
(35.4037 0.000767134 -0)
(35.39 -0.00116384 -0)
(35.3826 -0.00226687 -0)
(35.3838 -0.00214906 -0)
(35.3914 -0.00102889 -0)
(35.4009 0.000504009 -0)
(35.4078 0.00179373 -0)
(35.4096 0.00237134 -0)
(35.4064 0.0021013 -0)
(35.4005 0.00121298 -0)
(35.3946 0.000297283 -0)
(35.4271 -0.0153835 -0)
(35.4169 -0.0135482 -0)
(35.4046 -0.00598864 -0)
(35.427 -0.019622 -0)
(35.4221 -0.00895361 -0)
(35.4128 0.002924 -0)
(35.4159 -0.00240637 -0)
(35.4098 -0.000350714 -0)
(35.4192 0.00319051 -0)
(35.4272 0.000517624 -0)
(35.4192 -0.00216148 -0)
(35.4173 -0.00528176 -0)
(35.4195 -0.00572906 -0)
(35.4224 -0.00036123 -0)
(35.4291 0.0037686 -0)
(35.4307 -0.000110856 -0)
(35.4213 -0.00766955 -0)
(35.4126 -0.0100639 -0)
(35.4173 -0.00522066 -0)
(35.4309 0.00110041 -0)
(35.4381 0.00266396 -0)
(35.4306 -0.00132607 -0)
(35.4149 -0.006774 -0)
(35.4043 -0.00916866 -0)
(35.406 -0.00707676 -0)
(35.4163 -0.00237369 -0)
(35.4256 0.0018163 -0)
(35.4257 0.00335311 -0)
(35.4155 0.0020711 -0)
(35.4 -0.000637259 -0)
(35.387 -0.00294758 -0)
(35.3816 -0.00360552 -0)
(35.385 -0.00235693 -0)
(35.394 0.000179361 -0)
(35.4037 0.00294496 -0)
(35.4097 0.00492406 -0)
(35.4099 0.00550498 -0)
(35.4053 0.00464175 -0)
(35.3987 0.0028137 -0)
(35.3931 0.000847126 -0)
(35.4209 0.00435169 -0)
(35.4162 -0.00616233 -0)
(35.4029 0.0115737 -0)
(35.4168 0.00597162 -0)
(35.4275 -0.0114214 -0)
(35.4135 -0.0080865 -0)
(35.4103 -0.00265298 -0)
(35.4203 -0.000145185 -0)
(35.4279 0.00400018 -0)
(35.4159 -0.00163838 -0)
(35.408 -0.00979676 -0)
(35.4226 -0.0070571 -0)
(35.4304 0.0013831 -0)
(35.4236 0.00304714 -0)
(35.4207 -0.00380244 -0)
(35.4231 -0.0109741 -0)
(35.4216 -0.0116443 -0)
(35.4186 -0.00668143 -0)
(35.4222 -0.00185753 -0)
(35.4306 -0.00153527 -0)
(35.4337 -0.00543028 -0)
(35.4261 -0.0100312 -0)
(35.4136 -0.0119608 -0)
(35.4067 -0.0102335 -0)
(35.4102 -0.00630008 -0)
(35.4198 -0.00255821 -0)
(35.4268 -0.000708899 -0)
(35.4248 -0.000983817 -0)
(35.4136 -0.00241128 -0)
(35.3987 -0.00362639 -0)
(35.387 -0.00361921 -0)
(35.3832 -0.00209743 -0)
(35.3876 0.000542961 -0)
(35.3967 0.00349295 -0)
(35.4056 0.0058879 -0)
(35.4104 0.00711276 -0)
(35.4094 0.00696535 -0)
(35.4038 0.00564755 -0)
(35.3967 0.00360763 -0)
(35.391 0.00125891 -0)
(35.4165 -0.000423363 -0)
(35.4242 -0.00175069 -0)
(35.4167 0.00174242 -0)
(35.404 0.0065473 -0)
(35.408 -0.0037391 -0)
(35.4215 -0.00643468 -0)
(35.4238 0.00278752 -0)
(35.4165 0.00190527 -0)
(35.4177 -0.00613158 -0)
(35.4134 -0.00877834 -0)
(35.4138 -0.00430662 -0)
(35.4285 0.000810627 -0)
(35.4296 0.000559487 -0)
(35.4172 -0.00494005 -0)
(35.4151 -0.0104837 -0)
(35.4228 -0.0115777 -0)
(35.4256 -0.00843532 -0)
(35.4224 -0.00481385 -0)
(35.4224 -0.00416509 -0)
(35.4274 -0.00700321 -0)
(35.4296 -0.0111159 -0)
(35.4241 -0.0136808 -0)
(35.4147 -0.0132874 -0)
(35.41 -0.0105134 -0)
(35.4136 -0.00710122 -0)
(35.4219 -0.0046792 -0)
(35.4271 -0.00391322 -0)
(35.424 -0.00440339 -0)
(35.4128 -0.00513441 -0)
(35.3988 -0.00509453 -0)
(35.3885 -0.00373746 -0)
(35.3858 -0.00113956 -0)
(35.3906 0.00212267 -0)
(35.3994 0.00525163 -0)
(35.4073 0.00752541 -0)
(35.4107 0.00850774 -0)
(35.4085 0.00812099 -0)
(35.4019 0.00658502 -0)
(35.3943 0.0042652 -0)
(35.3883 0.00150833 -0)
(35.4182 -0.0018328 -0)
(35.4184 -0.00536541 -0)
(35.4112 -0.00949142 -0)
(35.4113 -0.00485396 -0)
(35.4146 0.00414216 -0)
(35.4201 0.00344266 -0)
(35.4186 -0.00175582 -0)
(35.4114 -0.00619337 -0)
(35.4172 -0.00684405 -0)
(35.4177 -0.003416 -0)
(35.4175 4.36572e-05 -0)
(35.4275 -0.000469463 -0)
(35.4247 -0.00475952 -0)
(35.4126 -0.00926742 -0)
(35.414 -0.010778 -0)
(35.4252 -0.00901881 -0)
(35.4284 -0.00638294 -0)
(35.4229 -0.00560805 -0)
(35.42 -0.00763059 -0)
(35.4237 -0.0112117 -0)
(35.427 -0.0141774 -0)
(35.4239 -0.0149946 -0)
(35.4168 -0.0135667 -0)
(35.4129 -0.0109695 -0)
(35.416 -0.00858376 -0)
(35.423 -0.00729208 -0)
(35.4271 -0.00714265 -0)
(35.4236 -0.00749916 -0)
(35.4129 -0.00746946 -0)
(35.4001 -0.00636185 -0)
(35.391 -0.00397242 -0)
(35.3891 -0.000618775 -0)
(35.394 0.00303677 -0)
(35.4021 0.00625202 -0)
(35.4089 0.00843613 -0)
(35.411 0.00927876 -0)
(35.4074 0.0087655 -0)
(35.3999 0.00710471 -0)
(35.3916 0.00461509 -0)
(35.3852 0.0016334 -0)
(35.414 -0.00122556 -0)
(35.4165 -0.00787413 -0)
(35.4172 -0.00455805 -0)
(35.4177 -0.00107931 -0)
(35.4163 0.00126151 -0)
(35.4156 -0.00113018 -0)
(35.4142 -0.00484493 -0)
(35.4114 -0.00530966 -0)
(35.4204 -0.00276365 -0)
(35.4203 -0.00040899 -0)
(35.4167 -0.000870621 -0)
(35.4237 -0.00410683 -0)
(35.4208 -0.00778123 -0)
(35.4112 -0.00945768 -0)
(35.4153 -0.00860735 -0)
(35.4272 -0.00675656 -0)
(35.429 -0.00600984 -0)
(35.4211 -0.00742569 -0)
(35.4168 -0.0104416 -0)
(35.4208 -0.0134987 -0)
(35.4258 -0.0151691 -0)
(35.4247 -0.0149564 -0)
(35.4187 -0.0133853 -0)
(35.4149 -0.0115085 -0)
(35.4173 -0.0102363 -0)
(35.4233 -0.00988722 -0)
(35.4269 -0.0101322 -0)
(35.4237 -0.0102566 -0)
(35.4139 -0.00954148 -0)
(35.4023 -0.0075842 -0)
(35.3942 -0.00444545 -0)
(35.3928 -0.0005949 -0)
(35.3975 0.00328458 -0)
(35.4048 0.00652556 -0)
(35.4103 0.00864548 -0)
(35.4111 0.00941961 -0)
(35.4063 0.00886765 -0)
(35.3978 0.00718621 -0)
(35.3888 0.00466997 -0)
(35.382 0.00165332 -0)
(35.4119 0.00219729 -0)
(35.4151 0.000994675 -0)
(35.418 0.000213941 -0)
(35.4172 -0.00123719 -0)
(35.4145 -0.00296903 -0)
(35.4139 -0.00405102 -0)
(35.4144 -0.0037188 -0)
(35.4135 -0.00200589 -0)
(35.4221 -0.000529575 -0)
(35.4196 -0.000995103 -0)
(35.4138 -0.00347413 -0)
(35.4205 -0.0063897 -0)
(35.4193 -0.00797489 -0)
(35.4118 -0.00767258 -0)
(35.4167 -0.00640788 -0)
(35.4278 -0.0057393 -0)
(35.4277 -0.00669053 -0)
(35.4185 -0.00913083 -0)
(35.4139 -0.0120077 -0)
(35.419 -0.0141083 -0)
(35.4256 -0.0147692 -0)
(35.4257 -0.0141324 -0)
(35.4202 -0.0129207 -0)
(35.416 -0.0119589 -0)
(35.4176 -0.0117209 -0)
(35.4231 -0.0121218 -0)
(35.4267 -0.012621 -0)
(35.4242 -0.0125224 -0)
(35.4156 -0.0112926 -0)
(35.4052 -0.00876465 -0)
(35.398 -0.00517958 -0)
(35.3968 -0.00108084 -0)
(35.4011 0.00287212 -0)
(35.4074 0.00608838 -0)
(35.4118 0.00816683 -0)
(35.4112 0.00893692 -0)
(35.4052 0.00843505 -0)
(35.3957 0.00684744 -0)
(35.3861 0.00445238 -0)
(35.3789 0.00157734 -0)
(35.4126 0.00066077 -0)
(35.4145 0.00201333 -0)
(35.415 -0.00021798 -0)
(35.4145 -0.0026885 -0)
(35.4135 -0.00379924 -0)
(35.4149 -0.00308765 -0)
(35.4163 -0.0015004 -0)
(35.4146 -0.000479285 -0)
(35.4214 -0.00101076 -0)
(35.4173 -0.00297672 -0)
(35.4113 -0.00527749 -0)
(35.4192 -0.00666055 -0)
(35.4195 -0.00663842 -0)
(35.4128 -0.00577862 -0)
(35.4173 -0.00521369 -0)
(35.4269 -0.00583115 -0)
(35.4256 -0.00773389 -0)
(35.4158 -0.0102593 -0)
(35.4118 -0.0124436 -0)
(35.418 -0.0135909 -0)
(35.4258 -0.0136079 -0)
(35.4265 -0.0129541 -0)
(35.4209 -0.012317 -0)
(35.4161 -0.0122315 -0)
(35.4171 -0.0128193 -0)
(35.4224 -0.0137446 -0)
(35.4265 -0.0143896 -0)
(35.425 -0.0141389 -0)
(35.4177 -0.0126235 -0)
(35.4084 -0.00983828 -0)
(35.4019 -0.00611839 -0)
(35.4009 -0.00201707 -0)
(35.4047 0.00185796 -0)
(35.4101 0.0049888 -0)
(35.4132 0.00703487 -0)
(35.4113 0.00785709 -0)
(35.4042 0.00749437 -0)
(35.3938 0.00611833 -0)
(35.3835 0.00398824 -0)
(35.376 0.00141451 -0)
(35.4132 -0.0016781 -0)
(35.4142 -0.00123233 -0)
(35.4133 -0.0020072 -0)
(35.4136 -0.00260824 -0)
(35.4141 -0.00223433 -0)
(35.4162 -0.00121122 -0)
(35.417 -0.000570981 -0)
(35.414 -0.00107092 -0)
(35.4196 -0.00262898 -0)
(35.4153 -0.0044384 -0)
(35.4102 -0.00558901 -0)
(35.4192 -0.00569522 -0)
(35.4202 -0.00511582 -0)
(35.4132 -0.00467102 -0)
(35.4167 -0.00509002 -0)
(35.4253 -0.00656961 -0)
(35.4233 -0.00870332 -0)
(35.4137 -0.0107642 -0)
(35.4106 -0.012117 -0)
(35.4178 -0.0125296 -0)
(35.4262 -0.0122487 -0)
(35.427 -0.0118169 -0)
(35.4209 -0.0117632 -0)
(35.4155 -0.0123486 -0)
(35.4161 -0.0134562 -0)
(35.4215 -0.0146428 -0)
(35.4263 -0.0153241 -0)
(35.4259 -0.0150021 -0)
(35.4199 -0.0134358 -0)
(35.4117 -0.0107013 -0)
(35.4058 -0.00714803 -0)
(35.4048 -0.00328553 -0)
(35.4081 0.00035166 -0)
(35.4126 0.00331719 -0)
(35.4146 0.00531854 -0)
(35.4116 0.00623329 -0)
(35.4035 0.00609032 -0)
(35.3922 0.00503739 -0)
(35.3813 0.00330591 -0)
(35.3735 0.00117626 -0)
(35.4131 -0.00249032 -0)
(35.4142 -0.00263321 -0)
(35.4136 -0.00207878 -0)
(35.4143 -0.00134946 -0)
(35.4149 -0.000699104 -0)
(35.4166 -0.000519533 -0)
(35.4164 -0.00112072 -0)
(35.4125 -0.0023841 -0)
(35.4181 -0.00376953 -0)
(35.4144 -0.00466567 -0)
(35.4101 -0.00480055 -0)
(35.4197 -0.00441533 -0)
(35.4206 -0.00410103 -0)
(35.4128 -0.00443111 -0)
(35.4154 -0.00562679 -0)
(35.4233 -0.00744292 -0)
(35.4214 -0.009326 -0)
(35.4124 -0.0107309 -0)
(35.4101 -0.0113868 -0)
(35.4179 -0.0113888 -0)
(35.4265 -0.0111183 -0)
(35.427 -0.0110362 -0)
(35.4204 -0.0114586 -0)
(35.4144 -0.0124286 -0)
(35.4148 -0.0137099 -0)
(35.4206 -0.014876 -0)
(35.4262 -0.0154603 -0)
(35.4269 -0.0151069 -0)
(35.422 -0.0136703 -0)
(35.4147 -0.0112434 -0)
(35.4093 -0.00812244 -0)
(35.4084 -0.00472582 -0)
(35.4113 -0.00149216 -0)
(35.415 0.00120839 -0)
(35.4161 0.00312692 -0)
(35.4121 0.00414955 -0)
(35.403 0.00428597 -0)
(35.391 0.00364962 -0)
(35.3797 0.00243282 -0)
(35.3715 0.000873638 -0)
(35.4131 -0.00174647 -0)
(35.4146 -0.00162687 -0)
(35.4146 -0.000915661 -0)
(35.415 -0.000350904 -0)
(35.4149 -0.000348581 -0)
(35.4158 -0.000990153 -0)
(35.4152 -0.00204817 -0)
(35.4113 -0.0031 -0)
(35.4174 -0.00374399 -0)
(35.4143 -0.00382937 -0)
(35.4104 -0.00355266 -0)
(35.4199 -0.00335097 -0)
(35.4202 -0.00365745 -0)
(35.4117 -0.00466699 -0)
(35.4137 -0.00623924 -0)
(35.4216 -0.0079695 -0)
(35.42 -0.00939041 -0)
(35.4117 -0.0102139 -0)
(35.41 -0.0104594 -0)
(35.4181 -0.0103984 -0)
(35.4266 -0.0103976 -0)
(35.4266 -0.0107419 -0)
(35.4195 -0.0115193 -0)
(35.4133 -0.0126135 -0)
(35.4137 -0.0137646 -0)
(35.4198 -0.0146527 -0)
(35.4261 -0.0149862 -0)
(35.4277 -0.0145722 -0)
(35.4238 -0.0133491 -0)
(35.4173 -0.0113926 -0)
(35.4123 -0.00890174 -0)
(35.4114 -0.00616338 -0)
(35.414 -0.00349271 -0)
(35.4172 -0.00116997 -0)
(35.4176 0.000603174 -0)
(35.4128 0.00171953 -0)
(35.403 0.00216477 -0)
(35.3903 0.00200988 -0)
(35.3786 0.0013977 -0)
(35.3702 0.000515428 -0)
(35.4132 -0.000447307 -0)
(35.415 -0.000210309 -0)
(35.4149 -4.85467e-05 -0)
(35.4148 -0.00020281 -0)
(35.4143 -0.000764615 -0)
(35.4149 -0.0015702 -0)
(35.4143 -0.00230792 -0)
(35.4108 -0.00271023 -0)
(35.4173 -0.00270575 -0)
(35.4146 -0.00246611 -0)
(35.4106 -0.00232654 -0)
(35.4196 -0.0026168 -0)
(35.4192 -0.00349035 -0)
(35.4102 -0.00484807 -0)
(35.4121 -0.00639782 -0)
(35.4202 -0.00778844 -0)
(35.4192 -0.00874747 -0)
(35.4113 -0.00921024 -0)
(35.4099 -0.00936143 -0)
(35.418 -0.00952239 -0)
(35.4262 -0.00997061 -0)
(35.4259 -0.0107949 -0)
(35.4185 -0.0118693 -0)
(35.4122 -0.0129514 -0)
(35.4128 -0.0138005 -0)
(35.4194 -0.0142431 -0)
(35.4263 -0.0141916 -0)
(35.4285 -0.0136338 -0)
(35.4252 -0.0126039 -0)
(35.4192 -0.0111624 -0)
(35.4146 -0.00940023 -0)
(35.4138 -0.00744912 -0)
(35.4163 -0.00547319 -0)
(35.4191 -0.00364034 -0)
(35.419 -0.00209176 -0)
(35.4137 -0.000922589 -0)
(35.4033 -0.000171085 -0)
(35.3902 0.000187153 -0)
(35.3782 0.000237566 -0)
(35.3696 0.000111168 -0)
(35.4132 0.000405722 -0)
(35.415 0.000389449 -0)
(35.4146 6.77424e-05 -0)
(35.4142 -0.000442084 -0)
(35.4136 -0.00100414 -0)
(35.4143 -0.00143634 -0)
(35.414 -0.00159768 -0)
(35.4109 -0.00148128 -0)
(35.4176 -0.00123915 -0)
(35.4147 -0.00112323 -0)
(35.4103 -0.00137447 -0)
(35.4187 -0.00211129 -0)
(35.418 -0.00326441 -0)
(35.4088 -0.00459812 -0)
(35.4107 -0.00583538 -0)
(35.4192 -0.00679031 -0)
(35.4186 -0.00740324 -0)
(35.4111 -0.00774906 -0)
(35.4096 -0.0080453 -0)
(35.4175 -0.00857064 -0)
(35.4253 -0.00951045 -0)
(35.4247 -0.0108142 -0)
(35.4174 -0.0121939 -0)
(35.4113 -0.0132911 -0)
(35.4124 -0.0138617 -0)
(35.4194 -0.0138526 -0)
(35.4267 -0.0133686 -0)
(35.4293 -0.0125864 -0)
(35.4263 -0.0116609 -0)
(35.4205 -0.0106704 -0)
(35.416 -0.00962191 -0)
(35.4153 -0.00849644 -0)
(35.4178 -0.00729199 -0)
(35.4206 -0.00603991 -0)
(35.4203 -0.00479872 -0)
(35.4147 -0.00363677 -0)
(35.4041 -0.00260948 -0)
(35.3908 -0.00173833 -0)
(35.3785 -0.00099974 -0)
(35.3698 -0.000324655 -0)
(35.4132 0.000609588 -0)
(35.4147 0.000362683 -0)
(35.4141 -1.70041e-05 -0)
(35.4138 -0.000367044 -0)
(35.4133 -0.000558517 -0)
(35.4143 -0.000530231 -0)
(35.4142 -0.000321781 -0)
(35.4112 -7.224e-05 -0)
(35.4177 2.68396e-05 -0)
(35.4144 -0.000190535 -0)
(35.4096 -0.000793935 -0)
(35.4177 -0.00172976 -0)
(35.4167 -0.00283371 -0)
(35.4076 -0.00387289 -0)
(35.4099 -0.00466543 -0)
(35.4186 -0.0052052 -0)
(35.4182 -0.00561274 -0)
(35.4107 -0.00602072 -0)
(35.4091 -0.00656853 -0)
(35.4165 -0.00742334 -0)
(35.4239 -0.00871312 -0)
(35.4232 -0.0103642 -0)
(35.416 -0.0120354 -0)
(35.4105 -0.0132761 -0)
(35.4122 -0.0137754 -0)
(35.4199 -0.013505 -0)
(35.4275 -0.0126926 -0)
(35.4302 -0.0116823 -0)
(35.4271 -0.010772 -0)
(35.4212 -0.0101057 -0)
(35.4167 -0.00965866 -0)
(35.4161 -0.00929742 -0)
(35.4187 -0.00886352 -0)
(35.4216 -0.00823853 -0)
(35.4214 -0.00737408 -0)
(35.4159 -0.00628829 -0)
(35.4052 -0.0050379 -0)
(35.3919 -0.00368292 -0)
(35.3796 -0.00226122 -0)
(35.3709 -0.000773046 -0)
(35.413 0.000620964 -0)
(35.4144 0.000408671 -0)
(35.4138 0.000268105 -0)
(35.4137 0.000256324 -0)
(35.4134 0.000393937 -0)
(35.4145 0.000627912 -0)
(35.4145 0.000842987 -0)
(35.4113 0.000899605 -0)
(35.4175 0.000685768 -0)
(35.4139 0.000167322 -0)
(35.4087 -0.000588908 -0)
(35.4167 -0.00145135 -0)
(35.4158 -0.00228042 -0)
(35.4069 -0.00293172 -0)
(35.4094 -0.00331299 -0)
(35.4183 -0.00353428 -0)
(35.4178 -0.00384739 -0)
(35.4101 -0.00440475 -0)
(35.4082 -0.00520054 -0)
(35.4153 -0.00622442 -0)
(35.4223 -0.00756388 -0)
(35.4214 -0.00924809 -0)
(35.4145 -0.0110458 -0)
(35.4096 -0.0125034 -0)
(35.4121 -0.0132024 -0)
(35.4205 -0.0130092 -0)
(35.4285 -0.0121406 -0)
(35.4312 -0.0110326 -0)
(35.4278 -0.0101199 -0)
(35.4216 -0.00965533 -0)
(35.4168 -0.0096476 -0)
(35.4161 -0.00990928 -0)
(35.4189 -0.0101632 -0)
(35.4221 -0.0101497 -0)
(35.4222 -0.0096988 -0)
(35.4171 -0.00875306 -0)
(35.4067 -0.00734673 -0)
(35.3935 -0.00556286 -0)
(35.3814 -0.00349383 -0)
(35.3729 -0.00121427 -0)
(35.4129 0.000888328 -0)
(35.4143 0.000867519 -0)
(35.4139 0.000957846 -0)
(35.4139 0.00112737 -0)
(35.4136 0.00132048 -0)
(35.4147 0.00144887 -0)
(35.4145 0.00142048 -0)
(35.411 0.00117258 -0)
(35.417 0.000695276 -0)
(35.4132 4.52233e-05 -0)
(35.408 -0.000652378 -0)
(35.416 -0.00126585 -0)
(35.4153 -0.00175194 -0)
(35.4066 -0.00209727 -0)
(35.4093 -0.0022425 -0)
(35.4181 -0.00229129 -0)
(35.4173 -0.00257259 -0)
(35.4093 -0.00329164 -0)
(35.4073 -0.00430393 -0)
(35.4141 -0.00535257 -0)
(35.4209 -0.00642751 -0)
(35.4197 -0.00771877 -0)
(35.4128 -0.009274 -0)
(35.4084 -0.0108072 -0)
(35.4117 -0.0118475 -0)
(35.4209 -0.0120675 -0)
(35.4295 -0.0115117 -0)
(35.4322 -0.0105701 -0)
(35.4285 -0.00975175 -0)
(35.4217 -0.00943201 -0)
(35.4165 -0.00971106 -0)
(35.4156 -0.0104184 -0)
(35.4185 -0.0112166 -0)
(35.4221 -0.0117367 -0)
(35.4228 -0.0116903 -0)
(35.4182 -0.0109271 -0)
(35.4084 -0.00943375 -0)
(35.3957 -0.00729486 -0)
(35.3839 -0.00464424 -0)
(35.3756 -0.00162935 -0)
(35.413 0.00146065 -0)
(35.4145 0.00156948 -0)
(35.4141 0.0017013 -0)
(35.4141 0.00180688 -0)
(35.4137 0.0018246 -0)
(35.4146 0.00169743 -0)
(35.4142 0.0013972 -0)
(35.4105 0.000940033 -0)
(35.4164 0.000378628 -0)
(35.4125 -0.000213729 -0)
(35.4074 -0.000725718 -0)
(35.4156 -0.00104832 -0)
(35.415 -0.00124087 -0)
(35.4064 -0.00145708 -0)
(35.4092 -0.00162741 -0)
(35.4179 -0.00168521 -0)
(35.4168 -0.00194751 -0)
(35.4084 -0.00277071 -0)
(35.4062 -0.00399573 -0)
(35.4132 -0.00508971 -0)
(35.42 -0.0057972 -0)
(35.4186 -0.00638089 -0)
(35.4114 -0.00724779 -0)
(35.407 -0.00847867 -0)
(35.4109 -0.00972422 -0)
(35.4208 -0.010498 -0)
(35.43 -0.0105643 -0)
(35.433 -0.0101039 -0)
(35.429 -0.00957693 -0)
(35.4216 -0.00943856 -0)
(35.4158 -0.00990864 -0)
(35.4146 -0.0108973 -0)
(35.4176 -0.0120732 -0)
(35.4216 -0.0130062 -0)
(35.4231 -0.0133111 -0)
(35.4193 -0.0127413 -0)
(35.4103 -0.0112177 -0)
(35.3983 -0.0088045 -0)
(35.3871 -0.00566085 -0)
(35.3791 -0.00199955 -0)
(35.413 0.00210512 -0)
(35.4146 0.00218682 -0)
(35.4142 0.00219839 -0)
(35.414 0.00211824 -0)
(35.4135 0.00192015 -0)
(35.4143 0.00159697 -0)
(35.4138 0.00117158 -0)
(35.41 0.000701894 -0)
(35.4158 0.000254091 -0)
(35.4121 -0.00014708 -0)
(35.4071 -0.000461221 -0)
(35.4155 -0.000567547 -0)
(35.4149 -0.000545793 -0)
(35.4062 -0.000767033 -0)
(35.409 -0.00121449 -0)
(35.4177 -0.00149292 -0)
(35.4162 -0.00171685 -0)
(35.4073 -0.00247817 -0)
(35.4049 -0.00386795 -0)
(35.4123 -0.00519216 -0)
(35.4196 -0.00578589 -0)
(35.4183 -0.00572708 -0)
(35.4107 -0.00567302 -0)
(35.4059 -0.00618366 -0)
(35.4097 -0.00725873 -0)
(35.4201 -0.00842916 -0)
(35.4299 -0.00920475 -0)
(35.4332 -0.00945011 -0)
(35.4291 -0.00943057 -0)
(35.4214 -0.00958157 -0)
(35.415 -0.0102196 -0)
(35.4134 -0.0113713 -0)
(35.4164 -0.0127716 -0)
(35.4209 -0.0139837 -0)
(35.4231 -0.0145589 -0)
(35.4203 -0.014165 -0)
(35.4123 -0.0126494 -0)
(35.4013 -0.0100388 -0)
(35.3907 -0.00650236 -0)
(35.3833 -0.00230837 -0)
(35.4131 0.00262611 -0)
(35.4145 0.0025866 -0)
(35.414 0.00245572 -0)
(35.4138 0.00223989 -0)
(35.4132 0.00194847 -0)
(35.4139 0.00160469 -0)
(35.4133 0.00124368 -0)
(35.4096 0.000924887 -0)
(35.4155 0.000711796 -0)
(35.4118 0.000556458 -0)
(35.407 0.000360579 -0)
(35.4155 0.000295419 -0)
(35.4148 0.000466391 -0)
(35.4058 0.000279812 -0)
(35.4085 -0.000549249 -0)
(35.4174 -0.00127323 -0)
(35.4158 -0.00148052 -0)
(35.4062 -0.00189909 -0)
(35.4035 -0.00318423 -0)
(35.4113 -0.0048376 -0)
(35.4194 -0.00578873 -0)
(35.4187 -0.00560924 -0)
(35.4109 -0.00487666 -0)
(35.4054 -0.00453304 -0)
(35.4086 -0.00507359 -0)
(35.4189 -0.00628672 -0)
(35.429 -0.00759528 -0)
(35.4328 -0.00856746 -0)
(35.4288 -0.00918051 -0)
(35.4208 -0.00973275 -0)
(35.4141 -0.0105657 -0)
(35.4121 -0.0118156 -0)
(35.415 -0.0133206 -0)
(35.4199 -0.0146874 -0)
(35.4229 -0.0154434 -0)
(35.4212 -0.0151912 -0)
(35.4144 -0.0137063 -0)
(35.4045 -0.0109685 -0)
(35.3948 -0.00714362 -0)
(35.388 -0.0025448 -0)
(35.413 0.00302984 -0)
(35.4144 0.00289096 -0)
(35.4138 0.00270514 -0)
(35.4135 0.00248431 -0)
(35.4129 0.00225225 -0)
(35.4136 0.00203538 -0)
(35.4131 0.00184246 -0)
(35.4095 0.00169959 -0)
(35.4155 0.0016981 -0)
(35.4117 0.00177799 -0)
(35.4069 0.00160656 -0)
(35.4156 0.00131767 -0)
(35.4148 0.00151196 -0)
(35.4052 0.00158658 -0)
(35.4075 0.000567222 -0)
(35.4168 -0.000758146 -0)
(35.4156 -0.00113375 -0)
(35.4056 -0.000986146 -0)
(35.402 -0.00163037 -0)
(35.4097 -0.00328541 -0)
(35.4188 -0.00482957 -0)
(35.4192 -0.00519591 -0)
(35.4118 -0.00446023 -0)
(35.4057 -0.00360636 -0)
(35.408 -0.00355923 -0)
(35.4176 -0.00452623 -0)
(35.4276 -0.00606677 -0)
(35.4316 -0.00759469 -0)
(35.428 -0.00881255 -0)
(35.42 -0.00980881 -0)
(35.4129 -0.0108656 -0)
(35.4107 -0.0121842 -0)
(35.4135 -0.0137103 -0)
(35.4187 -0.0151275 -0)
(35.4226 -0.0159779 -0)
(35.422 -0.0158249 -0)
(35.4166 -0.0143828 -0)
(35.4078 -0.0115816 -0)
(35.3992 -0.00757343 -0)
(35.393 -0.00270391 -0)
(35.4129 0.00344207 -0)
(35.4142 0.00328581 -0)
(35.4136 0.00313693 -0)
(35.4133 0.00299375 -0)
(35.4128 0.00287622 -0)
(35.4135 0.00280874 -0)
(35.413 0.00275917 -0)
(35.4095 0.00266823 -0)
(35.4156 0.00268544 -0)
(35.4117 0.00293887 -0)
(35.4065 0.00282232 -0)
(35.4154 0.00205436 -0)
(35.4151 0.0019411 -0)
(35.4048 0.00248537 -0)
(35.4061 0.00180406 -0)
(35.4157 -1.47801e-05 -0)
(35.4156 -0.000923613 -0)
(35.4057 -0.000376357 -0)
(35.4012 7.43873e-05 -0)
(35.4081 -0.000831205 -0)
(35.4175 -0.0025587 -0)
(35.419 -0.00370043 -0)
(35.4125 -0.00361396 -0)
(35.4063 -0.00289267 -0)
(35.4077 -0.00259304 -0)
(35.4164 -0.00330528 -0)
(35.426 -0.00487145 -0)
(35.43 -0.00672962 -0)
(35.4266 -0.00841169 -0)
(35.4188 -0.00980271 -0)
(35.4117 -0.0110744 -0)
(35.4092 -0.0124397 -0)
(35.412 -0.0139295 -0)
(35.4176 -0.0153156 -0)
(35.4222 -0.0161831 -0)
(35.4228 -0.0160843 -0)
(35.4187 -0.0146888 -0)
(35.4113 -0.0118805 -0)
(35.4037 -0.00779115 -0)
(35.3982 -0.0027853 -0)
(35.4127 0.00392879 -0)
(35.4141 0.00380978 -0)
(35.4135 0.0037147 -0)
(35.4132 0.00362533 -0)
(35.4127 0.00354735 -0)
(35.4135 0.00352966 -0)
(35.4129 0.00354484 -0)
(35.4094 0.0033681 -0)
(35.4157 0.0031001 -0)
(35.4118 0.00337253 -0)
(35.406 0.00358105 -0)
(35.4147 0.00237156 -0)
(35.4153 0.00143139 -0)
(35.4051 0.0022722 -0)
(35.405 0.00255243 -0)
(35.4141 0.000814952 -0)
(35.4152 -0.000872074 -0)
(35.4066 -0.000602401 -0)
(35.4015 0.000728002 -0)
(35.4071 0.00112961 -0)
(35.416 7.51936e-05 -0)
(35.4181 -0.00133296 -0)
(35.4126 -0.00197153 -0)
(35.4067 -0.00182628 -0)
(35.4076 -0.00172475 -0)
(35.4153 -0.00241473 -0)
(35.4242 -0.00400189 -0)
(35.4281 -0.00605474 -0)
(35.4249 -0.00805299 -0)
(35.4173 -0.00974057 -0)
(35.4103 -0.0111781 -0)
(35.4078 -0.0125577 -0)
(35.4106 -0.0139676 -0)
(35.4165 -0.0152621 -0)
(35.4218 -0.0160844 -0)
(35.4235 -0.0159987 -0)
(35.4208 -0.014649 -0)
(35.4147 -0.0118818 -0)
(35.4083 -0.00780612 -0)
(35.4036 -0.00279222 -0)
(35.4126 0.00441972 -0)
(35.414 0.00432597 -0)
(35.4134 0.00423605 -0)
(35.4132 0.00412995 -0)
(35.4127 0.00397665 -0)
(35.4135 0.00386588 -0)
(35.4128 0.00392081 -0)
(35.409 0.00373952 -0)
(35.4156 0.00296959 -0)
(35.4122 0.00289677 -0)
(35.4055 0.00379816 -0)
(35.4133 0.00279093 -0)
(35.415 0.000733382 -0)
(35.406 0.00113439 -0)
(35.4047 0.00252941 -0)
(35.4123 0.00178511 -0)
(35.4142 -0.000295817 -0)
(35.4073 -0.000973657 -0)
(35.4029 0.000238415 -0)
(35.4074 0.00155974 -0)
(35.4151 0.00160921 -0)
(35.417 0.000696945 -0)
(35.412 -0.000133077 -0)
(35.4066 -0.000453869 -0)
(35.4071 -0.000715587 -0)
(35.4141 -0.00158337 -0)
(35.4223 -0.00328369 -0)
(35.426 -0.0055041 -0)
(35.4229 -0.00773154 -0)
(35.4156 -0.00962912 -0)
(35.4089 -0.0111721 -0)
(35.4064 -0.0125257 -0)
(35.4093 -0.0138175 -0)
(35.4155 -0.0149748 -0)
(35.4214 -0.015705 -0)
(35.4243 -0.0156001 -0)
(35.4228 -0.014296 -0)
(35.4181 -0.0116125 -0)
(35.4128 -0.00763597 -0)
(35.4088 -0.0027311 -0)
(35.4124 0.00480705 -0)
(35.4139 0.00469467 -0)
(35.4133 0.00456959 -0)
(35.413 0.00444769 -0)
(35.4125 0.00421709 -0)
(35.4134 0.00390519 -0)
(35.4128 0.00398306 -0)
(35.4085 0.00419342 -0)
(35.4149 0.00311721 -0)
(35.4127 0.00209634 -0)
(35.4059 0.00359473 -0)
(35.4116 0.00385801 -0)
(35.4136 0.0012718 -0)
(35.4069 0.00039596 -0)
(35.4056 0.00209947 -0)
(35.4113 0.00285123 -0)
(35.4125 0.00144498 -0)
(35.4071 5.09199e-05 -0)
(35.4041 0.000253853 -0)
(35.4085 0.0013097 -0)
(35.4151 0.00183663 -0)
(35.4164 0.00152563 -0)
(35.4114 0.00097283 -0)
(35.4061 0.000604554 -0)
(35.4064 0.000183755 -0)
(35.4127 -0.000816679 -0)
(35.4203 -0.00262903 -0)
(35.4237 -0.00499279 -0)
(35.4208 -0.00739689 -0)
(35.4139 -0.00944587 -0)
(35.4074 -0.0110469 -0)
(35.4052 -0.012339 -0)
(35.4082 -0.013481 -0)
(35.4146 -0.0144667 -0)
(35.4212 -0.0150698 -0)
(35.425 -0.0149224 -0)
(35.4247 -0.0136664 -0)
(35.4214 -0.0111051 -0)
(35.4171 -0.00730337 -0)
(35.4139 -0.00261051 -0)
(35.4124 0.00510747 -0)
(35.4138 0.00496693 -0)
(35.4132 0.00481582 -0)
(35.4128 0.00477238 -0)
(35.4121 0.00465772 -0)
(35.4132 0.00412702 -0)
(35.4131 0.00395437 -0)
(35.4082 0.00490854 -0)
(35.4135 0.00436169 -0)
(35.4127 0.00197684 -0)
(35.4073 0.00297912 -0)
(35.4109 0.00492184 -0)
(35.4115 0.00332347 -0)
(35.4068 0.00131867 -0)
(35.4071 0.00197862 -0)
(35.4116 0.00344346 -0)
(35.4114 0.00346419 -0)
(35.4061 0.00257887 -0)
(35.4042 0.00214531 -0)
(35.409 0.00225304 -0)
(35.4153 0.00221006 -0)
(35.4161 0.00177579 -0)
(35.4111 0.00129396 -0)
(35.4058 0.0010054 -0)
(35.4057 0.000641018 -0)
(35.4113 -0.000313893 -0)
(35.4181 -0.00211168 -0)
(35.4212 -0.00452206 -0)
(35.4185 -0.00702415 -0)
(35.412 -0.00916515 -0)
(35.406 -0.0107852 -0)
(35.404 -0.0119914 -0)
(35.4072 -0.0129635 -0)
(35.4139 -0.0137552 -0)
(35.421 -0.0142082 -0)
(35.4257 -0.0140031 -0)
(35.4266 -0.0128002 -0)
(35.4245 -0.0103956 -0)
(35.4213 -0.00683371 -0)
(35.4187 -0.00244013 -0)
(35.4123 0.00548408 -0)
(35.4136 0.00536828 -0)
(35.4131 0.00519665 -0)
(35.4128 0.00523175 -0)
(35.4118 0.00549446 -0)
(35.4127 0.00494843 -0)
(35.4136 0.00387817 -0)
(35.4089 0.00510781 -0)
(35.4119 0.00620008 -0)
(35.4113 0.00314911 -0)
(35.4088 0.00222423 -0)
(35.412 0.00439897 -0)
(35.41 0.00485108 -0)
(35.4055 0.00340663 -0)
(35.4078 0.00272346 -0)
(35.4127 0.00323246 -0)
(35.4116 0.00386137 -0)
(35.4058 0.00424249 -0)
(35.4037 0.00450012 -0)
(35.4085 0.0044143 -0)
(35.4146 0.00370162 -0)
(35.4155 0.00258893 -0)
(35.4106 0.00164345 -0)
(35.4055 0.00113626 -0)
(35.4051 0.000749125 -0)
(35.41 -0.000113212 -0)
(35.4161 -0.00179565 -0)
(35.4187 -0.0041381 -0)
(35.4161 -0.00663411 -0)
(35.4101 -0.00878923 -0)
(35.4046 -0.0103815 -0)
(35.403 -0.011479 -0)
(35.4064 -0.0122702 -0)
(35.4133 -0.0128584 -0)
(35.4209 -0.0131507 -0)
(35.4264 -0.012882 -0)
(35.4284 -0.0117402 -0)
(35.4274 -0.00952221 -0)
(35.4251 -0.0062539 -0)
(35.4232 -0.00223012 -0)
(35.4123 0.00603875 -0)
(35.4135 0.00602022 -0)
(35.4131 0.00578471 -0)
(35.4131 0.00556003 -0)
(35.4118 0.00615601 -0)
(35.4116 0.00622014 -0)
(35.4133 0.00391372 -0)
(35.4105 0.00382187 -0)
(35.4115 0.00666373 -0)
(35.4087 0.0050297 -0)
(35.4085 0.00263634 -0)
(35.4136 0.00257102 -0)
(35.4105 0.00376842 -0)
(35.4047 0.00454694 -0)
(35.407 0.00431896 -0)
(35.4128 0.00345717 -0)
(35.4124 0.00294243 -0)
(35.4068 0.0034987 -0)
(35.4043 0.00474513 -0)
(35.4082 0.00552207 -0)
(35.4135 0.00507795 -0)
(35.4141 0.00371537 -0)
(35.4096 0.00231089 -0)
(35.4049 0.00141147 -0)
(35.4045 0.000831626 -0)
(35.4087 -3.05961e-05 -0)
(35.4141 -0.00160678 -0)
(35.4164 -0.00383043 -0)
(35.4138 -0.00624248 -0)
(35.4083 -0.00833744 -0)
(35.4033 -0.00984982 -0)
(35.4021 -0.0108124 -0)
(35.4058 -0.011414 -0)
(35.413 -0.0117973 -0)
(35.421 -0.0119288 -0)
(35.4271 -0.011599 -0)
(35.43 -0.0105295 -0)
(35.43 -0.00852406 -0)
(35.4286 -0.00559139 -0)
(35.4272 -0.00199075 -0)
(35.4121 0.00656947 -0)
(35.4134 0.00664951 -0)
(35.4127 0.00641592 -0)
(35.4132 0.00542671 -0)
(35.4125 0.00560827 -0)
(35.4105 0.00710103 -0)
(35.4112 0.00481239 -0)
(35.4116 0.00210214 -0)
(35.4132 0.00463492 -0)
(35.4073 0.00574343 -0)
(35.4064 0.00528299 -0)
(35.4131 0.00294962 -0)
(35.412 0.00188996 -0)
(35.4061 0.00373694 -0)
(35.4067 0.00576427 -0)
(35.4114 0.00544204 -0)
(35.4117 0.00370362 -0)
(35.4076 0.00289587 -0)
(35.4058 0.0037 -0)
(35.4089 0.00486653 -0)
(35.4128 0.00503155 -0)
(35.4127 0.00403661 -0)
(35.4083 0.00266905 -0)
(35.404 0.00163104 -0)
(35.4037 0.000925832 -0)
(35.4075 4.74899e-05 -0)
(35.4123 -0.00144414 -0)
(35.4141 -0.00354096 -0)
(35.4116 -0.00583125 -0)
(35.4065 -0.0078167 -0)
(35.4021 -0.00920779 -0)
(35.4014 -0.0100118 -0)
(35.4054 -0.0104172 -0)
(35.4128 -0.010599 -0)
(35.4211 -0.010577 -0)
(35.4278 -0.010195 -0)
(35.4314 -0.00921118 -0)
(35.4323 -0.00743964 -0)
(35.4316 -0.0048731 -0)
(35.4308 -0.00173202 -0)
(35.4119 0.00668166 -0)
(35.4133 0.00668151 -0)
(35.4118 0.00687672 -0)
(35.4123 0.00534109 -0)
(35.4135 0.00385235 -0)
(35.4108 0.00652845 -0)
(35.4083 0.00688898 -0)
(35.4103 0.00314547 -0)
(35.4152 0.00257761 -0)
(35.4093 0.00384304 -0)
(35.4057 0.00767296 -0)
(35.4102 0.00698622 -0)
(35.4113 0.0033051 -0)
(35.4085 0.00292666 -0)
(35.4087 0.00564944 -0)
(35.4107 0.00720415 -0)
(35.4098 0.00623602 -0)
(35.4068 0.00472109 -0)
(35.4063 0.00431387 -0)
(35.4095 0.00465882 -0)
(35.4126 0.00459697 -0)
(35.4117 0.00371193 -0)
(35.4072 0.00249851 -0)
(35.4032 0.00154383 -0)
(35.4029 0.000883369 -0)
(35.4064 7.53971e-05 -0)
(35.4105 -0.00129696 -0)
(35.412 -0.00324526 -0)
(35.4096 -0.00538579 -0)
(35.4049 -0.0072283 -0)
(35.4011 -0.00846933 -0)
(35.4009 -0.00909903 -0)
(35.4052 -0.0093069 -0)
(35.4128 -0.0092957 -0)
(35.4214 -0.00913271 -0)
(35.4284 -0.008712 -0)
(35.4327 -0.00782787 -0)
(35.4343 -0.00630637 -0)
(35.4343 -0.0041249 -0)
(35.4338 -0.0014635 -0)
(35.4117 0.00637443 -0)
(35.4136 0.00587194 -0)
(35.4113 0.00694775 -0)
(35.4102 0.00658597 -0)
(35.4137 0.00305959 -0)
(35.4135 0.0044426 -0)
(35.4078 0.00794541 -0)
(35.4073 0.00737419 -0)
(35.4139 0.00435101 -0)
(35.4124 0.00140952 -0)
(35.4095 0.00562036 -0)
(35.4087 0.00894373 -0)
(35.4079 0.00672218 -0)
(35.4084 0.00411047 -0)
(35.4109 0.00451312 -0)
(35.412 0.00597978 -0)
(35.4092 0.00634778 -0)
(35.4057 0.0058842 -0)
(35.4057 0.00555694 -0)
(35.4092 0.0053702 -0)
(35.4119 0.00474537 -0)
(35.4106 0.0035447 -0)
(35.4062 0.00224245 -0)
(35.4024 0.00131516 -0)
(35.4022 0.000732692 -0)
(35.4053 4.10595e-05 -0)
(35.4089 -0.00117808 -0)
(35.41 -0.00295086 -0)
(35.4076 -0.00491359 -0)
(35.4034 -0.00658452 -0)
(35.4002 -0.007653 -0)
(35.4006 -0.00809832 -0)
(35.4052 -0.00811224 -0)
(35.413 -0.0079216 -0)
(35.4217 -0.00763511 -0)
(35.4291 -0.00719219 -0)
(35.4338 -0.00642123 -0)
(35.436 -0.00516013 -0)
(35.4365 -0.00337127 -0)
(35.4364 -0.00119412 -0)
(35.4114 0.00645305 -0)
(35.4139 0.00504023 -0)
(35.4125 0.0061807 -0)
(35.4084 0.00894716 -0)