/*--------------------------------*- C++ -*----------------------------------*\
| =========                 |                                                 |
| \\      /  F ield         | OpenFOAM: The Open Source CFD Toolbox           |
|  \\    /   O peration     | Version:  2406                                  |
|   \\  /    A nd           | Website:  www.openfoam.com                      |
|    \\/     M anipulation  |                                                 |
\*---------------------------------------------------------------------------*/
FoamFile
{
    version     2.0;
    format      ascii;
    arch        "LSB;label=32;scalar=64";
    class       volVectorField;
    location    "3e-05";
    object      Fc;
}
// * * * * * * * * * * * * * * * * * * * * * * * * * * * * * * * * * * * * * //

dimensions      [1 -2 -2 0 0 0 0];

internalField   uniform (-0 -0 -0);

boundaryField
{
    upperBoundary
    {
        type            calculated;
        value           uniform (-0 -0 -0);
    }
    leftBoundary
    {
        type            calculated;
        value           uniform (-0 -0 -0);
    }
    rightBoundary
    {
        type            calculated;
        value           uniform (-0 -0 -0);
    }
    highVoltage
    {
        type            calculated;
        value           uniform (-0 -0 -0);
    }
    frontAndBack
    {
        type            empty;
    }
    region0_to_dielectric
    {
        type            calculated;
        value           uniform (-0 -0 -0);
    }
}


// ************************************************************************* //
