/*--------------------------------*- C++ -*----------------------------------*\
| =========                 |                                                 |
| \\      /  F ield         | OpenFOAM: The Open Source CFD Toolbox           |
|  \\    /   O peration     | Version:  2406                                  |
|   \\  /    A nd           | Website:  www.openfoam.com                      |
|    \\/     M anipulation  |                                                 |
\*---------------------------------------------------------------------------*/
FoamFile
{
    version     2.0;
    format      ascii;
    arch        "LSB;label=32;scalar=64";
    class       volScalarField;
    location    "3e-05";
    object      voltExt;
}
// * * * * * * * * * * * * * * * * * * * * * * * * * * * * * * * * * * * * * //

dimensions      [1 2 -3 0 0 -1 0];

internalField   nonuniform List<scalar> 
61540
(
-384.4853537
-628.5774435
-1126.802255
-1879.301235
-2773.652966
-3674.906648
-4505.448233
-5232.14128
-5843.145848
-6337.804456
-6758.106025
-7206.480277
-7778.114534
-8608.2908
-390.5170201
-637.5666912
-1140.160103
-1896.262922
-2792.673885
-3696.034346
-4530.258473
-5262.906804
-5882.344132
-6387.842123
-6821.976182
-7292.231455
-7905.536099
-8795.309086
-396.5297135
-646.4931772
-1153.329768
-1912.800572
-2810.891903
-3715.683425
-4552.345176
-5288.7767
-5913.13555
-6424.234692
-6864.451065
-7342.220535
-7963.839947
-8847.143288
-402.523211
-655.3564721
-1166.310977
-1928.914681
-2828.306055
-3733.84462
-4571.676617
-5309.667293
-5935.326065
-6446.606768
-6884.999495
-7356.246997
-7956.723005
-8788.092937
-8141.200255
-6806.380745
-5842.109677
-5046.509785
-4352.168698
-3729.41243
-3165.240481
-2656.427066
-2205.873968
-8457.122392
-7053.386137
-6032.659961
-5212.063341
-4510.402723
-3890.261272
-3334.433439
-2836.495739
-2396.035442
-8550.563621
-7179.204802
-6159.887824
-5339.984982
-4642.843615
-4030.760185
-3485.309914
-2998.378867
-2567.436819
-8470.410384
-7193.635401
-6224.019534
-5429.064028
-4748.372157
-4150.176104
-3617.670193
-3142.546519
-2721.228381
-1814.319136
-1487.162726
-1224.360399
-1016.647015
-853.4296381
-724.9885508
-623.3004621
-542.088244
-476.5691523
-423.1403734
-379.0955253
-342.397408
-311.5050281
-285.2453453
-262.7192493
-243.2321348
-226.2425486
-211.3250534
-198.1432685
-186.4291305
-175.9668279
-166.5814427
-158.1310849
-150.5003269
-143.5944733
-137.3357354
-131.6612234
-126.5213114
-121.8777922
-117.7027668
-113.9790258
-110.7013122
-107.8776473
-105.5312084
-103.7039804
-102.4626623
-101.9065172
-102.1770984
-103.4700902
-106.0480033
-110.247709
-116.467575
-125.1055092
-136.4141017
-2010.53274
-1683.044369
-1413.990933
-1196.059983
-1020.647709
-879.4874088
-765.4364951
-672.6735378
-596.6044996
-533.6637756
-481.1022032
-436.8021457
-399.1295985
-366.819017
-338.8844474
-314.5521272
-293.2106061
-274.37404
-257.6539718
-242.7369358
-229.3677713
-217.3382005
-206.4782002
-196.6480233
-187.7316286
-179.6330097
-172.2742666
-165.5932104
-159.5406397
-154.079135
-149.1838336
-144.8436327
-141.0617777
-137.8570108
-135.2669552
-133.3536137
-132.2096981
-131.9653365
-132.7954041
-134.9258655
-138.6328535
-144.2219176
-151.9695113
-162.0137512
-2187.886288
-1861.250219
-1588.157161
-1362.610279
-1177.50442
-1025.786365
-901.1330212
-798.2083298
-712.6683956
-641.0479656
-580.609972
-529.2016751
-485.1318881
-447.0692271
-413.9603205
-384.9672249
-359.420505
-336.7828356
-316.619678
-298.5765852
-282.3630862
-267.7409568
-254.5141167
-242.5196062
-231.6212041
-221.7061031
-212.6823546
-204.4753596
-197.0248037
-190.2839311
-184.2204829
-178.8172142
-174.071637
-169.9968688
-166.6249566
-164.0116552
-162.2409035
-161.428772
-161.7273374
-163.3266149
-166.4485269
-171.323384
-178.1389401
-186.9601658
-2347.943452
-2023.259359
-1747.940291
-1516.927008
-1324.261784
-1163.89849
-1030.25614
-918.483926
-824.5221257
-745.049852
-677.3858505
-619.3808662
-569.3173221
-525.8214286
-487.7910232
-454.3392781
-424.7503929
-398.443587
-374.9442656
-353.8623831
-334.8766667
-317.7218983
-302.1777079
-288.0595583
-275.2128752
-263.5094335
-252.8437633
-243.129003
-234.2940894
-226.2834196
-219.0574304
-212.5922267
-206.8787981
-201.9238951
-197.7531633
-194.4148494
-191.9824323
-190.5563943
-190.2656456
-191.2665165
-193.7339242
-197.8380284
-203.7018607
-211.3432414
-150.3493418
-166.3379528
-183.4135186
-200.7218157
-217.6141984
-233.6695064
-248.6518324
-262.4554651
-275.0581644
-286.4874174
-296.7980935
-306.0585017
-314.3420596
-321.722453
-328.2708835
-334.0545768
-339.1361086
-343.5732603
-347.419166
-350.722573
-353.5281171
-355.8766014
-357.8053036
-359.3483193
-360.5369039
-361.3997672
-361.9632958
-362.2517221
-362.2872799
-362.0903795
-361.6798044
-361.0729011
-360.2857339
-359.3331893
-358.2290446
-356.9860243
-355.6158707
-354.1294329
-352.5367658
-350.8472191
-349.0695038
-347.2117339
-345.2814524
-343.2856546
-341.2308195
-339.1229511
-336.9676247
-334.7700315
-332.5350131
-330.2670858
-327.9704555
-325.6490291
-323.3064274
-320.9460017
-318.5708544
-316.1838612
-313.7876931
-311.3848336
-308.9775927
-306.5681169
-304.1583963
-301.750272
-299.345443
-296.9454744
-294.5518069
-292.165766
-289.7885712
-287.4213443
-285.0651173
-282.7208382
-280.3893767
-278.0715295
-275.7680242
-273.4795239
-271.206631
-268.949891
-266.7097958
-264.4867876
-262.2812607
-260.0935654
-257.9240103
-255.7728649
-253.6403622
-251.5267014
-249.4320501
-247.3565473
-245.3003054
-243.2634121
-241.2459332
-239.2479137
-237.2693798
-235.31034
-233.3707868
-231.4506975
-229.5500349
-227.6687488
-225.8067766
-223.9640438
-222.1404653
-220.335946
-218.5503812
-216.7836579
-215.0356554
-213.3062455
-211.5952938
-209.90266
-208.2281985
-206.571759
-204.9331869
-203.3123239
-201.7090085
-200.1230763
-198.5543603
-197.0026914
-195.4678989
-193.9498103
-192.4482518
-190.9630489
-189.4940261
-188.0410074
-186.6038166
-185.1822772
-183.7762127
-182.3854469
-181.0098039
-179.6491082
-178.303185
-176.9718601
-175.6549601
-174.3523127
-173.0637463
-171.7890905
-170.5281762
-169.2808352
-168.0469009
-166.8262078
-165.6185918
-164.4238901
-163.2419417
-162.0725866
-160.9156666
-159.771025
-158.6385065
-157.5179576
-156.4092262
-155.3121618
-154.2266158
-153.1524408
-152.0894913
-151.0376234
-149.9966948
-148.9665651
-147.9470952
-146.9381479
-145.9395877
-144.9512805
-143.9730941
-143.0048981
-142.0465635
-141.0979633
-140.1589721
-139.2294664
-138.3093241
-137.3984253
-136.4966518
-135.6038871
-134.7200166
-133.8449277
-132.9785091
-132.1206518
-131.271248
-130.4301917
-129.5973785
-128.7727052
-127.95607
-127.1473723
-126.3465125
-125.553392
-124.7679129
-123.9899786
-123.219493
-122.4563612
-121.7004893
-120.9517846
-120.2101557
-119.4755124
-118.7477665
-118.026831
-117.3126209
-116.6050527
-115.9040445
-115.2095158
-114.5213876
-113.8395819
-113.1640217
-112.4946309
-111.8313342
-111.174057
-110.5227256
-109.8772671
-109.23761
-108.6036833
-107.9754179
-107.3527455
-106.7355992
-106.1239134
-105.5176234
-104.9166652
-104.3209758
-103.7304924
-103.145153
-102.5648959
-101.98966
-101.4193849
-100.8540113
-100.2934811
-99.73773755
-99.18672529
-98.64039046
-98.0986804
-97.56154345
-97.02892873
-96.50078577
-95.97706439
-95.45771457
-94.94268649
-94.43193068
-93.92539825
-93.42304111
-92.92481215
-92.43066537
-91.94055582
-91.45443946
-90.97227295
-90.49401327
-90.01961751
-89.5490427
-89.08224572
-88.61918341
-88.15981291
-87.70409189
-87.25197893
-86.80343383
-86.35841763
-85.91689266
-85.47882231
-85.04417064
-84.61290206
-84.18498107
-83.76037204
-83.33903925
-82.92094712
-82.50606046
-82.09434482
-81.68576677
-81.28029389
-80.87789472
-80.47853845
-80.08219461
-79.68883283
-79.29842269
-78.91093384
-78.52633615
-78.14460005
-77.76569664
-77.38959774
-77.01627577
-76.64570345
-76.27785367
-75.91269943
-75.55021395
-75.19037086
-74.83314452
-74.47850993
-74.12644268
-73.77691853
-73.4299131
-73.08540149
-72.74335822
-72.40375739
-72.06657287
-71.73177868
-71.3993492
-71.06925938
-70.74148493
-70.41600239
-70.0927891
-69.77182332
-69.45308436
-69.1365526
-68.82220934
-68.51003715
-68.20002046
-67.89214621
-67.58640481
-67.28279122
-66.98130477
-66.68194537
-66.38470311
-66.08954015
-65.7963734
-65.5050803
-65.21552863
-64.92754997
-64.6409463
-64.35585668
-64.05721023
-63.72911929
-63.36932088
-62.97551277
-62.54529376
-62.07600676
-61.5646077
-61.00762692
-60.40118708
-59.74111947
-59.02324218
-58.24341351
-57.39784712
-56.48305256
-55.49591332
-54.43368741
-53.29406977
-52.0750186
-50.77527594
-49.39398511
-47.93114916
-46.38807211
-44.7666171
-43.07096006
-41.30591016
-39.47901878
-37.59894518
-35.67738109
-33.72758394
-31.76633718
-29.81263805
-27.88975863
-26.02434652
-24.24882676
-22.60116786
-21.12833963
-19.88766368
-18.9527873
-18.41966387
-174.2775532
-188.318978
-203.3875922
-218.7952195
-233.9835009
-248.5600316
-262.2814463
-275.0182179
-286.7196306
-297.3856955
-307.0470489
-315.7516127
-323.556136
-330.5208934
-336.7063272
-342.1709726
-346.9703274
-351.1563975
-354.7776227
-357.8789333
-360.5018219
-362.6844461
-364.4618262
-365.8661417
-366.9270554
-367.6719715
-368.1261909
-368.3129988
-368.2537643
-367.9681023
-367.4740899
-366.7884824
-365.9268706
-364.9037581
-363.7325858
-362.4257541
-360.9946806
-359.4499024
-357.8011974
-356.0576907
-354.227921
-352.3198669
-350.3409502
-348.2980434
-346.1974948
-344.0451765
-341.8465428
-339.6066843
-337.3303657
-335.0220455
-332.6858819
-330.3257351
-327.9451741
-325.5474934
-323.1357367
-320.712725
-318.2810827
-315.843257
-313.4015312
-310.9580315
-308.5147314
-306.0734549
-303.6358827
-301.2035597
-298.7779053
-296.3602244
-293.9517178
-291.5534913
-289.1665639
-286.7918734
-284.4302819
-282.0825799
-279.7494905
-277.4316729
-275.1297262
-272.8441932
-270.575563
-268.3242749
-266.0907207
-263.8752474
-261.6781602
-259.4997248
-257.3401699
-255.1996905
-253.0784499
-250.9765831
-248.8941988
-246.8313818
-244.7881952
-242.7646824
-240.7608685
-238.7767611
-236.8123525
-234.8676198
-232.9425258
-231.0370202
-229.1510401
-227.2845106
-225.4373459
-223.6094498
-221.8007168
-220.0110324
-218.2402743
-216.488313
-214.7550122
-213.04023
-211.3438192
-209.6656275
-208.0054988
-206.3632732
-204.7387872
-203.1318751
-201.542368
-199.9700956
-198.4148853
-196.8765632
-195.3549542
-193.8498821
-192.3611701
-190.8886407
-189.4321162
-187.9914187
-186.5663704
-185.1567936
-183.762511
-182.3833457
-181.0191216
-179.6696632
-178.3347955
-177.0143448
-175.7081383
-174.4160041
-173.1377717
-171.8732717
-170.6223358
-169.3847971
-168.1604902
-166.9492509
-165.7509166
-164.5653261
-163.3923196
-162.2317388
-161.0834272
-159.9472297
-158.8229927
-157.7105643
-156.6097942
-155.5205338
-154.4426359
-153.3759551
-152.3203478
-151.2756718
-150.2417867
-149.2185538
-148.2058358
-147.2034974
-146.2114045
-145.2294253
-144.2574292
-143.2952876
-142.3428735
-141.4000618
-140.4667289
-139.5427534
-138.6280155
-137.7223976
-136.8257839
-135.9380605
-135.0591153
-134.1888385
-133.3271216
-132.4738582
-131.6289433
-130.7922737
-129.9637472
-129.143263
-128.330721
-127.5260221
-126.729068
-125.9397607
-125.1580032
-124.3836992
-123.6167531
-122.8570704
-122.104558
-121.3591239
-120.620678
-119.889132
-119.1643994
-118.4463955
-117.7350378
-117.0302452
-116.3319381
-115.6400381
-114.9544677
-114.2751502
-113.6020095
-112.93497
-112.2739568
-111.6188959
-110.9697142
-110.3263399
-109.6887024
-109.0567327
-108.4303634
-107.8095284
-107.1941628
-106.5842023
-105.9795836
-105.3802436
-104.7861191
-104.1971475
-103.6132662
-103.0344135
-102.4605285
-101.8915517
-101.3274256
-100.7680941
-100.2135034
-99.663601
-99.11833577
-98.57765724
-98.04151517
-97.50985918
-96.9826386
-96.45980245
-95.9412997
-95.42707972
-94.9170927
-94.41129006
-93.90962479
-93.41205144
-92.918526
-92.42900556
-91.94344778
-91.46181043
-90.98405095
-90.51012622
-90.03999259
-89.57360617
-89.11092315
-88.65190038
-88.19649582
-87.74466883
-87.29638034
-86.8515928
-86.41026982
-85.9723759
-85.53787603
-85.10673532
-84.6789189
-84.25439188
-83.83311944
-83.41506707
-83.00020079
-82.58848721
-82.17989361
-81.77438786
-81.37193825
-80.97251341
-80.57608225
-80.18261397
-79.79207816
-79.40444505
-79.01968548
-78.63777099
-78.25867371
-77.88236617
-77.50882112
-77.13801155
-76.7699106
-76.40449178
-76.04172907
-75.68159693
-75.32407022
-74.96912398
-74.61673318
-74.26687246
-73.91951602
-73.57463777
-73.23221152
-72.89221117
-72.55461097
-72.21938564
-71.88651063
-71.55596223
-71.22771734
-70.90175358
-70.57804961
-70.25658525
-69.93734125
-69.62029934
-69.30544302
-68.99275801
-68.68223242
-68.37385727
-68.06762568
-67.76352874
-67.46154743
-67.16164053
-66.86373429
-66.56772627
-66.27350035
-65.9809233
-65.68987097
-65.40042426
-65.09738059
-64.76451534
-64.39946051
-63.9998013
-63.56301761
-63.0863685
-62.56676363
-62.00073361
-61.38441263
-60.71364303
-59.98423532
-59.19200352
-58.33307876
-57.4039195
-56.40127913
-55.32237247
-54.1648291
-52.92652312
-51.60622559
-50.20301919
-48.71691819
-47.14929105
-45.50195472
-43.77926198
-41.9859604
-40.1298805
-38.21964051
-36.26727784
-34.28613692
-32.29333185
-30.30816224
-28.35423799
-26.45869262
-24.65443927
-22.98008413
-21.48337071
-20.22254935
-19.27247722
-18.73069287
-197.696127
-209.9951703
-223.2611084
-236.9337951
-250.5343342
-263.7041614
-276.2030383
-287.8880619
-298.6882872
-308.5820997
-317.5798359
-325.7116089
-333.0191577
-339.5503633
-345.3554837
-350.484652
-354.9864138
-358.9070444
-362.2902892
-365.1772284
-367.6061511
-369.6124975
-371.2289618
-372.4857506
-373.4108826
-374.0304019
-374.3684596
-374.447327
-374.2874494
-373.9076028
-373.3251314
-372.556181
-371.6158475
-370.5182222
-369.2763744
-367.9023441
-366.407196
-364.8011366
-363.0936573
-361.2936519
-359.409478
-357.4489652
-355.4193977
-353.3275071
-351.1794963
-348.9810952
-346.7376306
-344.4540884
-342.1351528
-339.7852193
-337.4083916
-335.0084752
-332.5889797
-330.153136
-327.7039242
-325.2441067
-322.7762586
-320.3027885
-317.8259503
-315.3478473
-312.8704325
-310.3955098
-307.9247379
-305.4596386
-303.0016076
-300.5519271
-298.1117774
-295.6822467
-293.2643394
-290.8589817
-288.4670263
-286.0892566
-283.7263892
-281.3790782
-279.0479184
-276.7334484
-274.4361537
-272.15647
-269.8947855
-267.6514432
-265.4267442
-263.2209494
-261.0342829
-258.8669346
-256.719063
-254.5907982
-252.4822448
-250.3934841
-248.3245762
-246.2755623
-244.2464658
-242.2372934
-240.2480366
-238.278672
-236.3291622
-234.3994563
-232.4894911
-230.5991909
-228.7284689
-226.8772279
-225.0453609
-223.2327519
-221.4392771
-219.6648049
-217.9091976
-216.1723111
-214.4539963
-212.7540993
-211.072462
-209.4089227
-207.7633161
-206.1354745
-204.5252278
-202.9324036
-201.3568279
-199.7983253
-198.2567188
-196.7318309
-195.2234831
-193.7314966
-192.2556922
-190.7958903
-189.3519118
-187.9235775
-186.5107086
-185.113127
-183.730655
-182.3631157
-181.0103326
-179.6721308
-178.3483358
-177.0387745
-175.7432749
-174.4616662
-173.1937786
-171.939444
-170.6984953
-169.470767
-168.256095
-167.0543166
-165.8652706
-164.6887973
-163.5247386
-162.372938
-161.2332404
-160.1054924
-158.9895423
-157.8852399
-156.7924365
-155.7109853
-154.640741
-153.5815601
-152.5333006
-151.4958223
-150.4689864
-149.4526559
-148.4466953
-147.4509711
-146.4653512
-145.4897053
-144.5239049
-143.5678233
-142.6213353
-141.6843181
-140.7566505
-139.8382135
-138.9288901
-138.0285653
-137.1371262
-136.2544621
-135.380464
-134.5150249
-133.6580397
-132.8094045
-131.9690172
-131.1367766
-130.3125823
-129.4963347
-128.6879345
-127.8872831
-127.0942822
-126.3088338
-125.530841
-124.7602074
-123.9968379
-123.2406389
-122.4915185
-121.7493868
-121.0141561
-120.2857408
-119.5640574
-118.8490244
-118.1405616
-117.4385903
-116.7430325
-116.0538108
-115.3708484
-114.6940686
-114.0233954
-113.3587535
-112.7000684
-112.0472672
-111.4002781
-110.7590316
-110.1234594
-109.4934952
-108.8690737
-108.2501306
-107.6366022
-107.0284246
-106.4255341
-105.8278667
-105.2353586
-104.6479463
-104.0655677
-103.4881619
-102.9156704
-102.3480368
-101.7852071
-101.2271292
-100.6737523
-100.1250263
-99.58090121
-99.04132637
-98.50625037
-97.97562103
-97.4493858
-96.92749237
-96.40988929
-95.89652666
-95.38735655
-94.88233308
-94.38141232
-93.88455175
-93.39170963
-92.90284422
-92.41791322
-91.93687335
-91.45968036
-90.98628927
-90.51665487
-90.0507324
-89.5884782
-89.12985021
-88.67480821
-88.22331392
-87.77533067
-87.33082303
-86.88975641
-86.4520965
-86.017809
-85.58685946
-85.15921317
-84.73483539
-84.3136915
-83.89574716
-83.4809685
-83.06932219
-82.66077546
-82.25529609
-81.85285236
-81.45341306
-81.05694754
-80.66342576
-80.27281836
-79.88509659
-79.50023235
-79.11819797
-78.73896607
-78.36250953
-77.98880137
-77.61781487
-77.24952361
-76.88390153
-76.52092284
-76.16056194
-75.80279324
-75.44759093
-75.09492889
-74.74478081
-74.3971203
-74.05192118
-73.70915754
-73.36880383
-73.03083513
-72.69522744
-72.3619574
-72.031002
-71.70233908
-71.37594778
-71.0518083
-70.72990154
-70.41020985
-70.09271759
-69.77741072
-69.46427665
-69.15330326
-68.84447488
-68.53776638
-68.23313577
-67.93051816
-67.62982839
-67.33096932
-67.03383553
-66.73833752
-66.44453915
-66.13704944
-65.79936366
-65.4290159
-65.02348432
-64.58014044
-64.09615828
-63.56839121
-62.99335545
-62.36719118
-61.68574374
-60.94482071
-60.14019139
-59.26791023
-58.32438848
-57.30625246
-56.21067246
-55.03521689
-53.77766996
-52.43683465
-51.0117313
-49.50238255
-47.91022538
-46.23702503
-44.48731607
-42.66578015
-40.78053012
-38.84014064
-36.85699647
-34.84452751
-32.82017949
-30.80355337
-28.81859753
-26.8929306
-25.05995439
-23.35891213
-21.8383214
-20.55736083
-19.59209749
-19.04165451
-220.6664703
-231.3845173
-243.0141454
-255.0940069
-267.213042
-279.0472913
-290.3660288
-301.0204878
-310.9260485
-320.0445104
-328.3695506
-335.9160179
-342.7123596
-348.7951674
-354.2051811
-358.9845107
-363.1749608
-366.8171923
-369.9503116
-372.6115588
-374.8359987
-376.6563189
-378.1028504
-379.203789
-379.9854657
-380.4725097
-380.687861
-380.6527188
-380.3865604
-379.9072962
-379.2315214
-378.3747549
-377.3515733
-376.1756204
-374.8595557
-373.4150266
-371.8527228
-370.1825095
-368.4135863
-366.5546095
-364.6137446
-362.5986554
-360.5164692
-358.3737594
-356.1765706
-353.9304829
-351.6406916
-349.3120751
-346.9492328
-344.5564911
-342.1378911
-339.6971749
-337.237785
-334.7628827
-332.2753803
-329.7779793
-327.2732034
-324.7634204
-322.250852
-319.7375753
-317.2255191
-314.716463
-312.2120406
-309.7137477
-307.222954
-304.7409174
-302.2687959
-299.8076587
-297.3584944
-294.9222161
-292.4996658
-290.0916174
-287.6987803
-285.3218018
-282.961271
-280.6177213
-278.2916336
-275.9834392
-273.6935217
-271.4222195
-269.1698288
-266.9366052
-264.7227673
-262.5284994
-260.3539544
-258.1992572
-256.0645077
-253.949783
-251.8551397
-249.7806166
-247.7262347
-245.6919996
-243.6779015
-241.6839164
-239.7100061
-237.7561191
-235.8221914
-233.9081464
-232.013896
-230.1393416
-228.2843748
-226.4488777
-224.6327247
-222.8357824
-221.0579108
-219.298964
-217.5587908
-215.8372352
-214.1341373
-212.4493331
-210.7826558
-209.1339356
-207.5030006
-205.8896767
-204.2937881
-202.7151578
-201.1536071
-199.6089569
-198.0810271
-196.5696374
-195.0746068
-193.5957545
-192.1328996
-190.6858615
-189.25446
-187.8385154
-186.4378486
-185.0522811
-183.6816352
-182.3257343
-180.9844027
-179.6574656
-178.3447497
-177.0460828
-175.7612936
-174.4902124
-173.2326709
-171.988502
-170.7575402
-169.5396214
-168.3345828
-167.1422634
-165.9625035
-164.795145
-163.6400315
-162.4970082
-161.3659217
-160.2466203
-159.138954
-158.0427743
-156.9579345
-155.8842896
-154.8216961
-153.7700123
-152.7290977
-151.698814
-150.6790239
-149.6695924
-148.6703859
-147.6812724
-146.7021219
-145.732806
-144.7731982
-143.823174
-142.8826109
-141.9513884
-141.0293886
-140.1164954
-139.2125949
-138.3175757
-137.4313281
-136.5537448
-135.6847202
-134.8241504
-133.9719328
-133.127966
-132.2921492
-131.4643823
-130.6445652
-129.8325983
-129.0283819
-128.2318169
-127.4428043
-126.6612462
-125.8870456
-125.1201071
-124.3603371
-123.6076442
-122.8619394
-122.1231363
-121.3911507
-120.6659003
-119.9473048
-119.2352849
-118.5297622
-117.8306586
-117.1378965
-116.4513983
-115.7710866
-115.0968849
-114.4287174
-113.76651
-113.11019
-112.4596869
-111.8149321
-111.1758587
-110.5424013
-109.9144954
-109.2920768
-108.6750812
-108.0634437
-107.4570993
-106.8559828
-106.2600292
-105.6691748
-105.0833578
-104.5025186
-103.9266005
-103.3555493
-102.7893131
-102.2278416
-101.671085
-101.1189931
-100.5715152
-100.0285989
-99.49019096
-98.95623736
-98.42668426
-97.90147876
-97.38056979
-96.86390862
-96.35144901
-95.84314703
-95.33896045
-94.83884787
-94.34276781
-93.85067799
-93.36253483
-92.87829335
-92.39790758
-91.92133108
-91.44851778
-90.97942278
-90.51400291
-90.05221716
-89.59402671
-89.13939468
-88.68828567
-88.24066531
-87.79649956
-87.35575437
-86.91839533
-86.4843876
-86.05369598
-85.62628514
-85.20211982
-84.78116514
-84.36338677
-83.94875107
-83.53722514
-83.12877678
-82.72337444
-82.32098723
-81.92158491
-81.52513787
-81.13161711
-80.74099429
-80.35324152
-79.96833124
-79.58623614
-79.20692904
-78.83038291
-78.45657092
-78.08546649
-77.71704323
-77.35127498
-76.98813563
-76.62759897
-76.26963859
-75.91422788
-75.56134024
-75.21094933
-74.86302919
-74.517554
-74.17449832
-73.83383771
-73.49554863
-73.15960772
-72.82599197
-72.49467955
-72.16564998
-71.83888331
-71.51436059
-71.19206478
-70.87197996
-70.55409062
-70.23838079
-69.92483026
-69.61340962
-69.30407632
-68.99677176
-68.69142436
-68.38795595
-68.08628635
-67.7863496
-67.48820402
-67.17623407
-66.83367906
-66.45799379
-66.04655435
-65.59662841
-65.10531773
-64.56941742
-63.98541806
-63.34945389
-62.65736058
-61.90494513
-61.08793178
-60.20230284
-59.24442624
-58.21080469
-57.09856252
-55.90521132
-54.62844027
-53.26708659
-51.82010721
-50.28753013
-48.67086459
-46.97181934
-45.19511482
-43.34536321
-41.4309623
-39.46044116
-37.44653317
-35.40275255
-33.34687734
-31.29880909
-29.28283519
-27.32705866
-25.46537053
-23.73765045
-22.19319045
-20.89209696
-19.91164705
-19.35254769
-408.7688413
-664.5561449
-1179.684993
-1945.319198
-2845.671483
-3751.271415
-4588.99446
-5326.291634
-5949.588392
-6455.697702
-6884.841307
-7337.135369
-7888.93573
-8565.992278
-415.2626424
-674.0796063
-1193.415762
-1961.934949
-2862.837022
-3767.68136
-4603.783783
-5337.778293
-5954.646514
-6450.082421
-6863.241543
-7287.587408
-7780.934734
-8332.92137
-421.7327877
-683.5263772
-1206.921708
-1978.050303
-2879.050949
-3782.324885
-4615.329667
-5343.576577
-5950.504487
-6431.138088
-6824.308593
-7217.510002
-7655.486965
-8115.436279
-428.1790041
-692.8959884
-1220.202831
-1993.667226
-2894.318133
-3795.216698
-4623.694874
-5343.93623
-5937.963774
-6400.866148
-6772.039351
-7134.111004
-7523.502119
-7915.802555
-434.6010236
-702.1879965
-1233.259225
-2008.788033
-2908.644962
-3806.37788
-4628.96478
-5339.167421
-5917.923115
-6361.255968
-6709.896161
-7042.584595
-7390.65223
-7732.214509
-440.9985833
-711.4019833
-1246.091082
-2023.415376
-2922.039306
-3815.835552
-4631.244191
-5329.622409
-5891.309923
-6314.136812
-6640.681549
-6946.482319
-7259.73713
-7562.162593
-447.371425
-720.5375555
-1258.698686
-2037.552238
-2934.510466
-3823.622385
-4630.653897
-5315.679072
-5859.029815
-6261.107042
-6566.569709
-6848.162005
-7132.044364
-7403.386753
-453.7192957
-729.5943451
-1271.082411
-2051.201924
-2946.069115
-3829.776088
-4627.327371
-5297.726656
-5821.933222
-6203.517325
-6489.205715
-6749.160967
-7008.082909
-7254.059718
-460.0419474
-738.5720081
-1283.24272
-2064.368052
-2956.72724
-3834.338875
-4621.407589
-5276.15387
-5780.796412
-6142.482958
-6409.814181
-6650.467294
-6887.972154
-7112.75439
-466.3391371
-747.4702253
-1295.180164
-2077.054546
-2966.498068
-3837.356896
-4613.043957
-5251.339692
-5736.312223
-6078.908536
-6329.297914
-6552.710442
-6771.646423
-6978.360379
-472.610627
-756.288701
-1306.89538
-2089.265628
-2975.395992
-3838.879643
-4602.389455
-5223.646347
-5689.088878
-6013.521374
-6248.320716
-6456.285876
-6658.956976
-6850.008116
-478.8561841
-765.0271634
-1318.389086
-2101.005806
-2983.436484
-3838.959366
-4589.598189
-5193.414908
-5639.654939
-5946.903489
-6167.36907
-6361.436351
-6549.72439
-6727.009457
-485.0755804
-773.685364
-1329.662085
-2112.27987
-2990.636007
-3837.650518
-4574.823417
-5160.962994
-5588.466003
-5879.518053
-6086.798497
-6268.306161
-6443.7653
-6608.812335
-491.2685929
-782.2630773
-1340.715259
-2123.092871
-2997.011928
-3835.009247
-4558.215941
-5126.583504
-5535.911815
-5811.733022
-6006.869372
-6176.975697
-6340.90421
-6494.967932
-497.4350038
-790.7601007
-1351.549566
-2133.450122
-3002.582425
-3831.092916
-4539.922764
-5090.544273
-5482.324092
-5743.841177
-5927.772862
-6087.483395
-6240.977974
-6385.106935
-503.5746
-799.1762541
-1362.166044
-2143.357174
-3007.3664
-3825.959648
-4520.085991
-5053.088614
-5427.984568
-5676.075599
-5849.648637
-5999.840463
-6143.837579
-6278.921673
-509.6871735
-807.5113795
-1372.565803
-2152.819814
-3011.383383
-3819.667915
-4498.842024
-5014.436456
-5373.132239
-5608.621762
-5772.597747
-5914.040719
-6049.348349
-6176.152576
-515.7725212
-815.7653409
-1382.750027
-2161.844044
-3014.653449
-3812.276156
-4476.320995
-4974.785753
-5317.969553
-5541.627422
-5696.692692
-5830.066752
-5957.388773
-6076.578121
-521.8304449
-823.9380242
-1392.719969
-2170.436069
-3017.197127
-3803.842445
-4452.646406
-4934.314057
-5262.667798
-5475.2105
-5621.984937
-5747.89378
-5867.848782
-5980.007355
-527.8607515
-832.0293362
-1402.476952
-2178.602288
-3019.035315
-3794.424202
-4427.934932
-4893.180178
-5207.37187
-5409.465044
-5548.510048
-5667.492333
-5780.628271
-5886.274076
-533.8632527
-840.0392051
-1412.022365
-2186.349274
-3020.189202
-3784.077939
-4402.296363
-4851.525857
-5152.204361
-5344.465759
-5476.291284
-5588.83025
-5695.635961
-5795.232136
-539.837765
-847.9675799
-1421.357659
-2193.683761
-3020.680192
-3772.859048
-4375.833648
-4809.477356
-5097.26897
-5280.271685
-5405.342359
-5511.873981
-5612.788321
-5706.751684
-545.7841099
-855.8144297
-1430.48435
-2200.612635
-3020.529826
-3760.821616
-4348.643024
-4767.146965
-5042.653339
-5216.929248
-5335.669667
-5436.58927
-5532.008461
-5620.716262
-551.7021138
-863.5797441
-1439.404012
-2207.142913
-3019.75972
-3748.018284
-4320.814205
-4724.6344
-4988.431455
-5154.474674
-5267.273947
-5362.941488
-5453.22515
-5537.020613
-557.5916078
-871.2635324
-1448.118275
-2213.281733
-3018.391495
-3734.500118
-4292.430623
-4682.028105
-4934.665666
-5092.935798
-5200.151483
-5290.895901
-5376.372031
-5455.568941
-563.4524281
-878.8658232
-1456.628827
-2219.036342
-3016.446724
-3720.316523
-4263.569692
-4639.406437
-4881.408385
-5032.333435
-5134.295004
-5220.417936
-5301.386995
-5376.273421
-569.2844155
-886.3866646
-1464.937407
-2224.414077
-3013.946873
-3705.515169
-4234.303098
-4596.838736
-4828.703516
-4972.682532
-5069.69443
-5151.473404
-5228.21162
-5299.052929
-575.0874156
-893.8261232
-1473.045803
-2229.42236
-3010.913252
-3690.141942
-4204.697101
-4554.386271
-4776.587667
-4913.99315
-5006.33745
-5084.028596
-5156.79067
-5223.83202
-580.861279
-901.1842844
-1480.955854
-2234.068677
-3007.366969
-3674.240912
-4174.81284
-4512.103101
-4725.09118
-4856.271301
-4944.209955
-5018.050289
-5087.071684
-5150.540164
-586.6058607
-908.4612513
-1488.669442
-2238.36057
-3003.328887
-3657.85432
-4144.706637
-4470.036836
-4674.238985
-4799.519592
-4883.296337
-4953.505721
-5019.004672
-5079.111137
-592.3210208
-915.6571453
-1496.188494
-2242.305627
-2998.819589
-3641.022573
-4114.430301
-4428.229325
-4624.05132
-4743.737742
-4823.579756
-4890.362591
-4952.541855
-5009.482494
-598.006624
-922.7721048
-1503.514978
-2245.911465
-2993.859343
-3623.784256
-4084.031419
-4386.717267
-4574.544339
-4688.923013
-4765.042383
-4828.589098
-4887.637451
-4941.595107
-603.6625395
-929.8062855
-1510.6509
-2249.185723
-2988.468069
-3606.176154
-4053.553639
-4345.53276
-4525.730648
-4635.07059
-4707.665636
-4768.153965
-4824.247467
-4875.392777
-609.2886413
-936.7598598
-1517.598301
-2252.136049
-2982.665317
-3588.233277
-4023.03694
-4304.703782
-4477.619757
-4582.173906
-4651.430352
-4709.026433
-4762.329523
-4810.82193
-614.8848082
-943.6330164
-1524.35926
-2254.770093
-2976.470243
-3569.988897
-3992.517881
-4264.254623
-4430.218477
-4530.224908
-4596.316906
-4651.176236
-4701.842697
-4747.831369
-620.4509233
-950.42596
-1530.935884
-2257.095493
-2969.901588
-3551.474588
-3962.029848
-4224.206265
-4383.531261
-4479.214266
-4542.305305
-4594.57359
-4642.747421
-4686.372078
-625.9868746
-957.1389108
-1537.330312
-2259.119868
-2962.97766
-3532.720275
-3931.603279
-4184.576725
-4337.560496
-4429.13156
-4489.375275
-4539.189207
-4585.005407
-4626.397049
-631.4925544
-963.7721044
-1543.544709
-2260.85081
-2955.716325
-3513.754281
-3901.265882
-4145.381364
-4292.306765
-4379.965452
-4437.50636
-4484.994323
-4528.57958
-4567.861123
-636.9678596
-970.3257914
-1549.581266
-2262.295873
-2948.134991
-3494.603379
-3871.042835
-4106.633157
-4247.769071
-4331.703833
-4386.678008
-4431.960705
-4473.434007
-4510.720853
-642.4126916
-976.8002365
-1555.442197
-2263.462567
-2940.250601
-3475.29285
-3840.956976
-4068.342941
-4203.945031
-4284.333957
-4336.869631
-4380.060643
-4419.533818
-4454.934378
-647.8269563
-983.1957188
-1561.129736
-2264.358351
-2932.079627
-3455.846534
-3811.028973
-4030.519623
-4160.831054
-4237.842549
-4288.060648
-4329.266925
-4366.845145
-4400.461322
-653.210564
-989.5125312
-1566.646138
-2264.990624
-2923.638065
-3436.286886
-3781.277493
-3993.170384
-4118.422487
-4192.215899
-4240.230531
-4279.552844
-4315.335082
-4347.262725
-658.5634293
-995.7509799
-1571.993673
-2265.366719
-2914.941432
-3416.635035
-3751.71935
-3956.300851
-4076.713765
-4147.439958
-4193.358854
-4230.89221
-4264.971672
-4295.300982
-663.8854712
-1001.911384
-1577.174627
-2265.4939
-2906.004763
-3396.91084
-3722.369649